
.Version 10.4.5 of ABINIT, released Jul 2025.
.(MPI version, prepared for a x86_64_linux_gnu11.2 computer) 

.Copyright (C) 1998-2025 ABINIT group . 
 ABINIT comes with ABSOLUTELY NO WARRANTY.
 It is free software, and you are welcome to redistribute it
 under certain conditions (GNU General Public License,
 see ~abinit/COPYING or http://www.gnu.org/copyleft/gpl.txt).

 ABINIT is a project of the Universite Catholique de Louvain,
 Corning Inc. and other collaborators, see ~abinit/doc/developers/contributors.txt .
 Please read https://docs.abinit.org/theory/acknowledgments for suggested
 acknowledgments of the ABINIT effort.
 For more information, see https://www.abinit.org .

.Starting date : Sat 23 Aug 2025.
- ( at 17h39 )
  
- input  file    -> tnlo_2.abi
- output file    -> tnlo_2.abo
- root for input  files -> tnlo_2i
- root for output files -> tnlo_2o

- inpspheads : Reading pseudopotential header in XML form from 
-   /work/10335/mias0356/ls6/work/modules/abinit-10.4.5/tests//Pspdir/Psdj_paw_pbe_std/Al.xml
- inpspheads : Reading pseudopotential header in XML form from 
-   /work/10335/mias0356/ls6/work/modules/abinit-10.4.5/tests//Pspdir/Psdj_paw_pbe_std/N.xml
 DATASET    1 : space group P6_3 m c (#186); Bravais hP (primitive hexag.)
================================================================================
 Values of the parameters that define the memory need for DATASET  1.
     intxc =       0    ionmov =       0      iscf =      17    lmnmax =       8
     lnmax =       4     mgfft =      50  mpssoang =       2    mqgrid =    3001
     natom =       4  nloc_mem =       2    nspden =       1   nspinor =       1
    nsppol =       1      nsym =      12    n1xccc =       1    ntypat =       2
    occopt =       1   xclevel =       2
-    mband =           8        mffmem =           1         mkmem =           1
       mpw =        2628          nfft =       51200          nkpt =          16
Pmy_natom=         1
 PAW method is used; the additional fine FFT grid is defined by:
   mgfftf=        50    nfftf =     51200
================================================================================
P This job should need less than                      22.384 Mbytes of memory.
  Rough estimation (10% accuracy) of disk space for files :
_ WF disk file :      5.135 Mbytes ; DEN or POT disk file :      0.393 Mbytes.
================================================================================

 DATASET    2 : space group P6_3 m c (#186); Bravais hP (primitive hexag.)
================================================================================
 Values of the parameters that define the memory need for DATASET  2.
     intxc =       0    ionmov =       0      iscf =      -2    lmnmax =       8
     lnmax =       4     mgfft =      50  mpssoang =       2    mqgrid =    3001
     natom =       4  nloc_mem =       2    nspden =       1   nspinor =       1
    nsppol =       1      nsym =      12    n1xccc =       1    ntypat =       2
    occopt =       1   xclevel =       2
-    mband =           8        mffmem =           1         mkmem =           1
       mpw =        2628          nfft =       51200          nkpt =          98
Pmy_natom=         1
 PAW method is used; the additional fine FFT grid is defined by:
   mgfftf=        50    nfftf =     51200
================================================================================
P This job should need less than                      15.408 Mbytes of memory.
  Rough estimation (10% accuracy) of disk space for files :
_ WF disk file :     31.440 Mbytes ; DEN or POT disk file :      0.393 Mbytes.
================================================================================

 DATASET    3 : space group P6_3 m c (#186); Bravais hP (primitive hexag.)
================================================================================
 Values of the parameters that define the memory need for DATASET  3 (RF).
     intxc =       0      iscf =       7    lmnmax =       8     lnmax =       4
     mgfft =      50  mpssoang =       2    mqgrid =    3001     natom =       4
  nloc_mem =       2    nspden =       1   nspinor =       1    nsppol =       1
      nsym =      12    n1xccc =       1    ntypat =       2    occopt =       1
   xclevel =       2
-    mband =           8        mffmem =           1         mkmem =           1
-   mkqmem =           1        mk1mem =           1           mpw =        2628
      nfft =       51200          nkpt =          98
Pmy_natom=         1
================================================================================
P This job should need less than                      17.287 Mbytes of memory.
  Rough estimation (10% accuracy) of disk space for files :
_ WF disk file :     31.440 Mbytes ; DEN or POT disk file :      0.393 Mbytes.
================================================================================

 DATASET    4 : space group P6_3 m c (#186); Bravais hP (primitive hexag.)
================================================================================
 Values of the parameters that define the memory need for DATASET  4 (RF).
     intxc =       0      iscf =       7    lmnmax =       8     lnmax =       4
     mgfft =      50  mpssoang =       2    mqgrid =    3001     natom =       4
  nloc_mem =       2    nspden =       1   nspinor =       1    nsppol =       1
      nsym =      12    n1xccc =       1    ntypat =       2    occopt =       1
   xclevel =       2
-    mband =           8        mffmem =           1         mkmem =           1
-   mkqmem =           1        mk1mem =           1           mpw =        2628
      nfft =       51200          nkpt =          98
Pmy_natom=         1
================================================================================
P This job should need less than                      85.376 Mbytes of memory.
  Rough estimation (10% accuracy) of disk space for files :
_ WF disk file :     31.440 Mbytes ; DEN or POT disk file :      0.393 Mbytes.
================================================================================

 DATASET    5 : space group P6_3 m c (#186); Bravais hP (primitive hexag.)
================================================================================
 Values of the parameters that define the memory need for DATASET  5 (RF).
     intxc =       0      iscf =       7    lmnmax =       8     lnmax =       4
     mgfft =      50  mpssoang =       2    mqgrid =    3001     natom =       4
  nloc_mem =       2    nspden =       1   nspinor =       1    nsppol =       1
      nsym =      12    n1xccc =       1    ntypat =       2    occopt =       1
   xclevel =       2
-    mband =           8        mffmem =           1         mkmem =           1
-   mkqmem =           1        mk1mem =           1           mpw =        2628
      nfft =       51200          nkpt =          98
Pmy_natom=         1
================================================================================
P This job should need less than                      17.287 Mbytes of memory.
  Rough estimation (10% accuracy) of disk space for files :
_ WF disk file :     31.440 Mbytes ; DEN or POT disk file :      0.393 Mbytes.
================================================================================

 DATASET    6 : space group P6_3 m c (#186); Bravais hP (primitive hexag.)
================================================================================
 Values of the parameters that define the memory need for DATASET  6 (RF).
     intxc =       0      iscf =       7    lmnmax =       8     lnmax =       4
     mgfft =      50  mpssoang =       2    mqgrid =    3001     natom =       4
  nloc_mem =       2    nspden =       1   nspinor =       1    nsppol =       1
      nsym =      12    n1xccc =       1    ntypat =       2    occopt =       1
   xclevel =       2
-    mband =           8        mffmem =           1         mkmem =           1
-   mkqmem =           1        mk1mem =           1           mpw =        2628
      nfft =       51200          nkpt =          98
Pmy_natom=         1
================================================================================
P This job should need less than                      17.287 Mbytes of memory.
  Rough estimation (10% accuracy) of disk space for files :
_ WF disk file :     31.440 Mbytes ; DEN or POT disk file :      0.393 Mbytes.
================================================================================

 DATASET    7 : space group P6_3 m c (#186); Bravais hP (primitive hexag.)
================================================================================
 Values of the parameters that define the memory need for DATASET  7.
     intxc =       0    ionmov =       0      iscf =      17    lmnmax =       8
     lnmax =       4     mgfft =      50  mpssoang =       2    mqgrid =    3001
     natom =       4  nloc_mem =       2    nspden =       1   nspinor =       1
    nsppol =       1      nsym =      12    n1xccc =       1    ntypat =       2
    occopt =       1   xclevel =       2
-    mband =           8        mffmem =           1         mkmem =           1
       mpw =        2628          nfft =       51200          nkpt =          98
 PAW method is used; the additional fine FFT grid is defined by:
   mgfftf=        50    nfftf =     51200
================================================================================
P This job should need less than                      23.186 Mbytes of memory.
  Rough estimation (10% accuracy) of disk space for files :
_ WF disk file :     31.440 Mbytes ; DEN or POT disk file :      0.393 Mbytes.
================================================================================

--------------------------------------------------------------------------------
------------- Echo of variables that govern the present computation ------------
--------------------------------------------------------------------------------
-
- outvars: echo of selected default values
-   iomode0 =  0 , fftalg0 =512 , wfoptalg0 = 10
-
- outvars: echo of global parameters not present in the input file
-  max_nthreads =    1
-
 -outvars: echo values of preprocessed input variables --------
            acell      1.0000000000E+00  1.0000000000E+00  1.0000000000E+00 Bohr
              amu      2.69815390E+01  1.40067400E+01
          dilatmx      1.05000000E+00
   d3e_pert1_elfd1          0
   d3e_pert1_elfd2          0
   d3e_pert1_elfd3          0
   d3e_pert1_elfd4          0
   d3e_pert1_elfd5          0
   d3e_pert1_elfd6          0
   d3e_pert1_elfd7          1
   d3e_pert1_phon1          0
   d3e_pert1_phon2          0
   d3e_pert1_phon3          0
   d3e_pert1_phon4          0
   d3e_pert1_phon5          0
   d3e_pert1_phon6          0
   d3e_pert1_phon7          1
   d3e_pert2_elfd1          0
   d3e_pert2_elfd2          0
   d3e_pert2_elfd3          0
   d3e_pert2_elfd4          0
   d3e_pert2_elfd5          0
   d3e_pert2_elfd6          0
   d3e_pert2_elfd7          1
   d3e_pert3_elfd1          0
   d3e_pert3_elfd2          0
   d3e_pert3_elfd3          0
   d3e_pert3_elfd4          0
   d3e_pert3_elfd5          0
   d3e_pert3_elfd6          0
   d3e_pert3_elfd7          1
             ecut      3.00000000E+01 Hartree
-          fftalg         512
           getddk1          0
           getddk2          0
           getddk3          0
           getddk4          3
           getddk5          3
           getddk6          3
           getddk7          3
         getdelfd1          0
         getdelfd2          0
         getdelfd3          0
         getdelfd4          0
         getdelfd5          0
         getdelfd6          4
         getdelfd7          0
          getdkdk1          0
          getdkdk2          0
          getdkdk3          0
          getdkdk4          0
          getdkdk5          0
          getdkdk6          5
          getdkdk7          0
          getdkde1          0
          getdkde2          0
          getdkde3          0
          getdkde4          0
          getdkde5          0
          getdkde6          0
          getdkde7          6
           getden1          0
           getden2          1
           getden3          0
           getden4          0
           getden5          0
           getden6          0
           getden7          0
           getwfk1          0
           getwfk2          1
           getwfk3          2
           getwfk4          2
           getwfk5          2
           getwfk6          2
           getwfk7          2
          get1den1          0
          get1den2          0
          get1den3          0
          get1den4          0
          get1den5          0
          get1den6          4
          get1den7          4
           get1wf1          0
           get1wf2          0
           get1wf3          0
           get1wf4          0
           get1wf5          0
           get1wf6          0
           get1wf7          4
             iscf1         17
             iscf2         -2
             iscf3          7
             iscf4          7
             iscf5          7
             iscf6          7
             iscf7         17
              ixc     -101130
           jdtset        1    2    3    4    5    6    7
              kpt1     0.00000000E+00  0.00000000E+00  1.25000000E-01
                       1.42857143E-01  0.00000000E+00  1.25000000E-01
                       2.85714286E-01  0.00000000E+00  1.25000000E-01
                       4.28571429E-01  0.00000000E+00  1.25000000E-01
                       1.42857143E-01  1.42857143E-01  1.25000000E-01
                       2.85714286E-01  1.42857143E-01  1.25000000E-01
                       4.28571429E-01  1.42857143E-01  1.25000000E-01
                       2.85714286E-01  2.85714286E-01  1.25000000E-01
                       0.00000000E+00  0.00000000E+00  3.75000000E-01
                       1.42857143E-01  0.00000000E+00  3.75000000E-01
                       2.85714286E-01  0.00000000E+00  3.75000000E-01
                       4.28571429E-01  0.00000000E+00  3.75000000E-01
                       1.42857143E-01  1.42857143E-01  3.75000000E-01
                       2.85714286E-01  1.42857143E-01  3.75000000E-01
                       4.28571429E-01  1.42857143E-01  3.75000000E-01
                       2.85714286E-01  2.85714286E-01  3.75000000E-01
              kpt2     0.00000000E+00  0.00000000E+00  1.25000000E-01
                       1.42857143E-01  0.00000000E+00  1.25000000E-01
                       2.85714286E-01  0.00000000E+00  1.25000000E-01
                       4.28571429E-01  0.00000000E+00  1.25000000E-01
                      -4.28571429E-01  0.00000000E+00  1.25000000E-01
                      -2.85714286E-01  0.00000000E+00  1.25000000E-01
                      -1.42857143E-01  0.00000000E+00  1.25000000E-01
                       0.00000000E+00  1.42857143E-01  1.25000000E-01
                       1.42857143E-01  1.42857143E-01  1.25000000E-01
                       2.85714286E-01  1.42857143E-01  1.25000000E-01
                       4.28571429E-01  1.42857143E-01  1.25000000E-01
                      -4.28571429E-01  1.42857143E-01  1.25000000E-01
                      -2.85714286E-01  1.42857143E-01  1.25000000E-01
                      -1.42857143E-01  1.42857143E-01  1.25000000E-01
                       0.00000000E+00  2.85714286E-01  1.25000000E-01
                       1.42857143E-01  2.85714286E-01  1.25000000E-01
                       2.85714286E-01  2.85714286E-01  1.25000000E-01
                       4.28571429E-01  2.85714286E-01  1.25000000E-01
                      -4.28571429E-01  2.85714286E-01  1.25000000E-01
                      -2.85714286E-01  2.85714286E-01  1.25000000E-01
                      -1.42857143E-01  2.85714286E-01  1.25000000E-01
                       0.00000000E+00  4.28571429E-01  1.25000000E-01
                       1.42857143E-01  4.28571429E-01  1.25000000E-01
                       2.85714286E-01  4.28571429E-01  1.25000000E-01
                       4.28571429E-01  4.28571429E-01  1.25000000E-01
                      -4.28571429E-01  4.28571429E-01  1.25000000E-01
                      -2.85714286E-01  4.28571429E-01  1.25000000E-01
                      -1.42857143E-01  4.28571429E-01  1.25000000E-01
                       0.00000000E+00 -4.28571429E-01  1.25000000E-01
                       1.42857143E-01 -4.28571429E-01  1.25000000E-01
                       2.85714286E-01 -4.28571429E-01  1.25000000E-01
                       4.28571429E-01 -4.28571429E-01  1.25000000E-01
                      -4.28571429E-01 -4.28571429E-01  1.25000000E-01
                      -2.85714286E-01 -4.28571429E-01  1.25000000E-01
                      -1.42857143E-01 -4.28571429E-01  1.25000000E-01
                       0.00000000E+00 -2.85714286E-01  1.25000000E-01
                       1.42857143E-01 -2.85714286E-01  1.25000000E-01
                       2.85714286E-01 -2.85714286E-01  1.25000000E-01
                       4.28571429E-01 -2.85714286E-01  1.25000000E-01
                      -4.28571429E-01 -2.85714286E-01  1.25000000E-01
                      -2.85714286E-01 -2.85714286E-01  1.25000000E-01
                      -1.42857143E-01 -2.85714286E-01  1.25000000E-01
                       0.00000000E+00 -1.42857143E-01  1.25000000E-01
                       1.42857143E-01 -1.42857143E-01  1.25000000E-01
                       2.85714286E-01 -1.42857143E-01  1.25000000E-01
                       4.28571429E-01 -1.42857143E-01  1.25000000E-01
                      -4.28571429E-01 -1.42857143E-01  1.25000000E-01
                      -2.85714286E-01 -1.42857143E-01  1.25000000E-01
                      -1.42857143E-01 -1.42857143E-01  1.25000000E-01
                       0.00000000E+00  0.00000000E+00  3.75000000E-01
              kpt3     0.00000000E+00  0.00000000E+00  1.25000000E-01
                       1.42857143E-01  0.00000000E+00  1.25000000E-01
                       2.85714286E-01  0.00000000E+00  1.25000000E-01
                       4.28571429E-01  0.00000000E+00  1.25000000E-01
                      -4.28571429E-01  0.00000000E+00  1.25000000E-01
                      -2.85714286E-01  0.00000000E+00  1.25000000E-01
                      -1.42857143E-01  0.00000000E+00  1.25000000E-01
                       0.00000000E+00  1.42857143E-01  1.25000000E-01
                       1.42857143E-01  1.42857143E-01  1.25000000E-01
                       2.85714286E-01  1.42857143E-01  1.25000000E-01
                       4.28571429E-01  1.42857143E-01  1.25000000E-01
                      -4.28571429E-01  1.42857143E-01  1.25000000E-01
                      -2.85714286E-01  1.42857143E-01  1.25000000E-01
                      -1.42857143E-01  1.42857143E-01  1.25000000E-01
                       0.00000000E+00  2.85714286E-01  1.25000000E-01
                       1.42857143E-01  2.85714286E-01  1.25000000E-01
                       2.85714286E-01  2.85714286E-01  1.25000000E-01
                       4.28571429E-01  2.85714286E-01  1.25000000E-01
                      -4.28571429E-01  2.85714286E-01  1.25000000E-01
                      -2.85714286E-01  2.85714286E-01  1.25000000E-01
                      -1.42857143E-01  2.85714286E-01  1.25000000E-01
                       0.00000000E+00  4.28571429E-01  1.25000000E-01
                       1.42857143E-01  4.28571429E-01  1.25000000E-01
                       2.85714286E-01  4.28571429E-01  1.25000000E-01
                       4.28571429E-01  4.28571429E-01  1.25000000E-01
                      -4.28571429E-01  4.28571429E-01  1.25000000E-01
                      -2.85714286E-01  4.28571429E-01  1.25000000E-01
                      -1.42857143E-01  4.28571429E-01  1.25000000E-01
                       0.00000000E+00 -4.28571429E-01  1.25000000E-01
                       1.42857143E-01 -4.28571429E-01  1.25000000E-01
                       2.85714286E-01 -4.28571429E-01  1.25000000E-01
                       4.28571429E-01 -4.28571429E-01  1.25000000E-01
                      -4.28571429E-01 -4.28571429E-01  1.25000000E-01
                      -2.85714286E-01 -4.28571429E-01  1.25000000E-01
                      -1.42857143E-01 -4.28571429E-01  1.25000000E-01
                       0.00000000E+00 -2.85714286E-01  1.25000000E-01
                       1.42857143E-01 -2.85714286E-01  1.25000000E-01
                       2.85714286E-01 -2.85714286E-01  1.25000000E-01
                       4.28571429E-01 -2.85714286E-01  1.25000000E-01
                      -4.28571429E-01 -2.85714286E-01  1.25000000E-01
                      -2.85714286E-01 -2.85714286E-01  1.25000000E-01
                      -1.42857143E-01 -2.85714286E-01  1.25000000E-01
                       0.00000000E+00 -1.42857143E-01  1.25000000E-01
                       1.42857143E-01 -1.42857143E-01  1.25000000E-01
                       2.85714286E-01 -1.42857143E-01  1.25000000E-01
                       4.28571429E-01 -1.42857143E-01  1.25000000E-01
                      -4.28571429E-01 -1.42857143E-01  1.25000000E-01
                      -2.85714286E-01 -1.42857143E-01  1.25000000E-01
                      -1.42857143E-01 -1.42857143E-01  1.25000000E-01
                       0.00000000E+00  0.00000000E+00  3.75000000E-01
              kpt4     0.00000000E+00  0.00000000E+00  1.25000000E-01
                       1.42857143E-01  0.00000000E+00  1.25000000E-01
                       2.85714286E-01  0.00000000E+00  1.25000000E-01
                       4.28571429E-01  0.00000000E+00  1.25000000E-01
                      -4.28571429E-01  0.00000000E+00  1.25000000E-01
                      -2.85714286E-01  0.00000000E+00  1.25000000E-01
                      -1.42857143E-01  0.00000000E+00  1.25000000E-01
                       0.00000000E+00  1.42857143E-01  1.25000000E-01
                       1.42857143E-01  1.42857143E-01  1.25000000E-01
                       2.85714286E-01  1.42857143E-01  1.25000000E-01
                       4.28571429E-01  1.42857143E-01  1.25000000E-01
                      -4.28571429E-01  1.42857143E-01  1.25000000E-01
                      -2.85714286E-01  1.42857143E-01  1.25000000E-01
                      -1.42857143E-01  1.42857143E-01  1.25000000E-01
                       0.00000000E+00  2.85714286E-01  1.25000000E-01
                       1.42857143E-01  2.85714286E-01  1.25000000E-01
                       2.85714286E-01  2.85714286E-01  1.25000000E-01
                       4.28571429E-01  2.85714286E-01  1.25000000E-01
                      -4.28571429E-01  2.85714286E-01  1.25000000E-01
                      -2.85714286E-01  2.85714286E-01  1.25000000E-01
                      -1.42857143E-01  2.85714286E-01  1.25000000E-01
                       0.00000000E+00  4.28571429E-01  1.25000000E-01
                       1.42857143E-01  4.28571429E-01  1.25000000E-01
                       2.85714286E-01  4.28571429E-01  1.25000000E-01
                       4.28571429E-01  4.28571429E-01  1.25000000E-01
                      -4.28571429E-01  4.28571429E-01  1.25000000E-01
                      -2.85714286E-01  4.28571429E-01  1.25000000E-01
                      -1.42857143E-01  4.28571429E-01  1.25000000E-01
                       0.00000000E+00 -4.28571429E-01  1.25000000E-01
                       1.42857143E-01 -4.28571429E-01  1.25000000E-01
                       2.85714286E-01 -4.28571429E-01  1.25000000E-01
                       4.28571429E-01 -4.28571429E-01  1.25000000E-01
                      -4.28571429E-01 -4.28571429E-01  1.25000000E-01
                      -2.85714286E-01 -4.28571429E-01  1.25000000E-01
                      -1.42857143E-01 -4.28571429E-01  1.25000000E-01
                       0.00000000E+00 -2.85714286E-01  1.25000000E-01
                       1.42857143E-01 -2.85714286E-01  1.25000000E-01
                       2.85714286E-01 -2.85714286E-01  1.25000000E-01
                       4.28571429E-01 -2.85714286E-01  1.25000000E-01
                      -4.28571429E-01 -2.85714286E-01  1.25000000E-01
                      -2.85714286E-01 -2.85714286E-01  1.25000000E-01
                      -1.42857143E-01 -2.85714286E-01  1.25000000E-01
                       0.00000000E+00 -1.42857143E-01  1.25000000E-01
                       1.42857143E-01 -1.42857143E-01  1.25000000E-01
                       2.85714286E-01 -1.42857143E-01  1.25000000E-01
                       4.28571429E-01 -1.42857143E-01  1.25000000E-01
                      -4.28571429E-01 -1.42857143E-01  1.25000000E-01
                      -2.85714286E-01 -1.42857143E-01  1.25000000E-01
                      -1.42857143E-01 -1.42857143E-01  1.25000000E-01
                       0.00000000E+00  0.00000000E+00  3.75000000E-01
              kpt5     0.00000000E+00  0.00000000E+00  1.25000000E-01
                       1.42857143E-01  0.00000000E+00  1.25000000E-01
                       2.85714286E-01  0.00000000E+00  1.25000000E-01
                       4.28571429E-01  0.00000000E+00  1.25000000E-01
                      -4.28571429E-01  0.00000000E+00  1.25000000E-01
                      -2.85714286E-01  0.00000000E+00  1.25000000E-01
                      -1.42857143E-01  0.00000000E+00  1.25000000E-01
                       0.00000000E+00  1.42857143E-01  1.25000000E-01
                       1.42857143E-01  1.42857143E-01  1.25000000E-01
                       2.85714286E-01  1.42857143E-01  1.25000000E-01
                       4.28571429E-01  1.42857143E-01  1.25000000E-01
                      -4.28571429E-01  1.42857143E-01  1.25000000E-01
                      -2.85714286E-01  1.42857143E-01  1.25000000E-01
                      -1.42857143E-01  1.42857143E-01  1.25000000E-01
                       0.00000000E+00  2.85714286E-01  1.25000000E-01
                       1.42857143E-01  2.85714286E-01  1.25000000E-01
                       2.85714286E-01  2.85714286E-01  1.25000000E-01
                       4.28571429E-01  2.85714286E-01  1.25000000E-01
                      -4.28571429E-01  2.85714286E-01  1.25000000E-01
                      -2.85714286E-01  2.85714286E-01  1.25000000E-01
                      -1.42857143E-01  2.85714286E-01  1.25000000E-01
                       0.00000000E+00  4.28571429E-01  1.25000000E-01
                       1.42857143E-01  4.28571429E-01  1.25000000E-01
                       2.85714286E-01  4.28571429E-01  1.25000000E-01
                       4.28571429E-01  4.28571429E-01  1.25000000E-01
                      -4.28571429E-01  4.28571429E-01  1.25000000E-01
                      -2.85714286E-01  4.28571429E-01  1.25000000E-01
                      -1.42857143E-01  4.28571429E-01  1.25000000E-01
                       0.00000000E+00 -4.28571429E-01  1.25000000E-01
                       1.42857143E-01 -4.28571429E-01  1.25000000E-01
                       2.85714286E-01 -4.28571429E-01  1.25000000E-01
                       4.28571429E-01 -4.28571429E-01  1.25000000E-01
                      -4.28571429E-01 -4.28571429E-01  1.25000000E-01
                      -2.85714286E-01 -4.28571429E-01  1.25000000E-01
                      -1.42857143E-01 -4.28571429E-01  1.25000000E-01
                       0.00000000E+00 -2.85714286E-01  1.25000000E-01
                       1.42857143E-01 -2.85714286E-01  1.25000000E-01
                       2.85714286E-01 -2.85714286E-01  1.25000000E-01
                       4.28571429E-01 -2.85714286E-01  1.25000000E-01
                      -4.28571429E-01 -2.85714286E-01  1.25000000E-01
                      -2.85714286E-01 -2.85714286E-01  1.25000000E-01
                      -1.42857143E-01 -2.85714286E-01  1.25000000E-01
                       0.00000000E+00 -1.42857143E-01  1.25000000E-01
                       1.42857143E-01 -1.42857143E-01  1.25000000E-01
                       2.85714286E-01 -1.42857143E-01  1.25000000E-01
                       4.28571429E-01 -1.42857143E-01  1.25000000E-01
                      -4.28571429E-01 -1.42857143E-01  1.25000000E-01
                      -2.85714286E-01 -1.42857143E-01  1.25000000E-01
                      -1.42857143E-01 -1.42857143E-01  1.25000000E-01
                       0.00000000E+00  0.00000000E+00  3.75000000E-01
              kpt6     0.00000000E+00  0.00000000E+00  1.25000000E-01
                       1.42857143E-01  0.00000000E+00  1.25000000E-01
                       2.85714286E-01  0.00000000E+00  1.25000000E-01
                       4.28571429E-01  0.00000000E+00  1.25000000E-01
                      -4.28571429E-01  0.00000000E+00  1.25000000E-01
                      -2.85714286E-01  0.00000000E+00  1.25000000E-01
                      -1.42857143E-01  0.00000000E+00  1.25000000E-01
                       0.00000000E+00  1.42857143E-01  1.25000000E-01
                       1.42857143E-01  1.42857143E-01  1.25000000E-01
                       2.85714286E-01  1.42857143E-01  1.25000000E-01
                       4.28571429E-01  1.42857143E-01  1.25000000E-01
                      -4.28571429E-01  1.42857143E-01  1.25000000E-01
                      -2.85714286E-01  1.42857143E-01  1.25000000E-01
                      -1.42857143E-01  1.42857143E-01  1.25000000E-01
                       0.00000000E+00  2.85714286E-01  1.25000000E-01
                       1.42857143E-01  2.85714286E-01  1.25000000E-01
                       2.85714286E-01  2.85714286E-01  1.25000000E-01
                       4.28571429E-01  2.85714286E-01  1.25000000E-01
                      -4.28571429E-01  2.85714286E-01  1.25000000E-01
                      -2.85714286E-01  2.85714286E-01  1.25000000E-01
                      -1.42857143E-01  2.85714286E-01  1.25000000E-01
                       0.00000000E+00  4.28571429E-01  1.25000000E-01
                       1.42857143E-01  4.28571429E-01  1.25000000E-01
                       2.85714286E-01  4.28571429E-01  1.25000000E-01
                       4.28571429E-01  4.28571429E-01  1.25000000E-01
                      -4.28571429E-01  4.28571429E-01  1.25000000E-01
                      -2.85714286E-01  4.28571429E-01  1.25000000E-01
                      -1.42857143E-01  4.28571429E-01  1.25000000E-01
                       0.00000000E+00 -4.28571429E-01  1.25000000E-01
                       1.42857143E-01 -4.28571429E-01  1.25000000E-01
                       2.85714286E-01 -4.28571429E-01  1.25000000E-01
                       4.28571429E-01 -4.28571429E-01  1.25000000E-01
                      -4.28571429E-01 -4.28571429E-01  1.25000000E-01
                      -2.85714286E-01 -4.28571429E-01  1.25000000E-01
                      -1.42857143E-01 -4.28571429E-01  1.25000000E-01
                       0.00000000E+00 -2.85714286E-01  1.25000000E-01
                       1.42857143E-01 -2.85714286E-01  1.25000000E-01
                       2.85714286E-01 -2.85714286E-01  1.25000000E-01
                       4.28571429E-01 -2.85714286E-01  1.25000000E-01
                      -4.28571429E-01 -2.85714286E-01  1.25000000E-01
                      -2.85714286E-01 -2.85714286E-01  1.25000000E-01
                      -1.42857143E-01 -2.85714286E-01  1.25000000E-01
                       0.00000000E+00 -1.42857143E-01  1.25000000E-01
                       1.42857143E-01 -1.42857143E-01  1.25000000E-01
                       2.85714286E-01 -1.42857143E-01  1.25000000E-01
                       4.28571429E-01 -1.42857143E-01  1.25000000E-01
                      -4.28571429E-01 -1.42857143E-01  1.25000000E-01
                      -2.85714286E-01 -1.42857143E-01  1.25000000E-01
                      -1.42857143E-01 -1.42857143E-01  1.25000000E-01
                       0.00000000E+00  0.00000000E+00  3.75000000E-01
              kpt7     0.00000000E+00  0.00000000E+00  1.25000000E-01
                       1.42857143E-01  0.00000000E+00  1.25000000E-01
                       2.85714286E-01  0.00000000E+00  1.25000000E-01
                       4.28571429E-01  0.00000000E+00  1.25000000E-01
                      -4.28571429E-01  0.00000000E+00  1.25000000E-01
                      -2.85714286E-01  0.00000000E+00  1.25000000E-01
                      -1.42857143E-01  0.00000000E+00  1.25000000E-01
                       0.00000000E+00  1.42857143E-01  1.25000000E-01
                       1.42857143E-01  1.42857143E-01  1.25000000E-01
                       2.85714286E-01  1.42857143E-01  1.25000000E-01
                       4.28571429E-01  1.42857143E-01  1.25000000E-01
                      -4.28571429E-01  1.42857143E-01  1.25000000E-01
                      -2.85714286E-01  1.42857143E-01  1.25000000E-01
                      -1.42857143E-01  1.42857143E-01  1.25000000E-01
                       0.00000000E+00  2.85714286E-01  1.25000000E-01
                       1.42857143E-01  2.85714286E-01  1.25000000E-01
                       2.85714286E-01  2.85714286E-01  1.25000000E-01
                       4.28571429E-01  2.85714286E-01  1.25000000E-01
                      -4.28571429E-01  2.85714286E-01  1.25000000E-01
                      -2.85714286E-01  2.85714286E-01  1.25000000E-01
                      -1.42857143E-01  2.85714286E-01  1.25000000E-01
                       0.00000000E+00  4.28571429E-01  1.25000000E-01
                       1.42857143E-01  4.28571429E-01  1.25000000E-01
                       2.85714286E-01  4.28571429E-01  1.25000000E-01
                       4.28571429E-01  4.28571429E-01  1.25000000E-01
                      -4.28571429E-01  4.28571429E-01  1.25000000E-01
                      -2.85714286E-01  4.28571429E-01  1.25000000E-01
                      -1.42857143E-01  4.28571429E-01  1.25000000E-01
                       0.00000000E+00 -4.28571429E-01  1.25000000E-01
                       1.42857143E-01 -4.28571429E-01  1.25000000E-01
                       2.85714286E-01 -4.28571429E-01  1.25000000E-01
                       4.28571429E-01 -4.28571429E-01  1.25000000E-01
                      -4.28571429E-01 -4.28571429E-01  1.25000000E-01
                      -2.85714286E-01 -4.28571429E-01  1.25000000E-01
                      -1.42857143E-01 -4.28571429E-01  1.25000000E-01
                       0.00000000E+00 -2.85714286E-01  1.25000000E-01
                       1.42857143E-01 -2.85714286E-01  1.25000000E-01
                       2.85714286E-01 -2.85714286E-01  1.25000000E-01
                       4.28571429E-01 -2.85714286E-01  1.25000000E-01
                      -4.28571429E-01 -2.85714286E-01  1.25000000E-01
                      -2.85714286E-01 -2.85714286E-01  1.25000000E-01
                      -1.42857143E-01 -2.85714286E-01  1.25000000E-01
                       0.00000000E+00 -1.42857143E-01  1.25000000E-01
                       1.42857143E-01 -1.42857143E-01  1.25000000E-01
                       2.85714286E-01 -1.42857143E-01  1.25000000E-01
                       4.28571429E-01 -1.42857143E-01  1.25000000E-01
                      -4.28571429E-01 -1.42857143E-01  1.25000000E-01
                      -2.85714286E-01 -1.42857143E-01  1.25000000E-01
                      -1.42857143E-01 -1.42857143E-01  1.25000000E-01
                       0.00000000E+00  0.00000000E+00  3.75000000E-01
                       outvar_i_n : Printing only first  50 k-points.
           kptopt1          1
           kptopt2          2
           kptopt3          2
           kptopt4          2
           kptopt5          2
           kptopt6          2
           kptopt7          2
         kptrlatt        7    0    0      0    7    0      0    0    4
          kptrlen      3.79226837E+01
P           mkmem           1
P          mkqmem           1
P          mk1mem           1
            natom           4
            nband1          8
            nband2          8
            nband3          8
            nband4          8
            nband5          8
            nband6          8
            nband7          8
           ndtset           7
            ngfft          32      32      50
          ngfftdg          32      32      50
             nkpt1         16
             nkpt2         98
             nkpt3         98
             nkpt4         98
             nkpt5         98
             nkpt6         98
             nkpt7         98
            nstep         200
             nsym          12
           ntypat           2
              occ1     2.000000  2.000000  2.000000  2.000000  2.000000  2.000000
                       2.000000  2.000000
              occ3     2.000000  2.000000  2.000000  2.000000  2.000000  2.000000
                       2.000000  2.000000
              occ4     2.000000  2.000000  2.000000  2.000000  2.000000  2.000000
                       2.000000  2.000000
              occ5     2.000000  2.000000  2.000000  2.000000  2.000000  2.000000
                       2.000000  2.000000
              occ6     2.000000  2.000000  2.000000  2.000000  2.000000  2.000000
                       2.000000  2.000000
              occ7     2.000000  2.000000  2.000000  2.000000  2.000000  2.000000
                       2.000000  2.000000
        optdriver1          0
        optdriver2          0
        optdriver3          1
        optdriver4          1
        optdriver5          1
        optdriver6          1
        optdriver7          5
-      paral_atom1          1
-      paral_atom2          1
-      paral_atom3          1
-      paral_atom4          1
-      paral_atom5          1
-      paral_atom6          1
-      paral_atom7          0
        pawecutdg      3.00000000E+01 Hartree
         pawxcdev           0
          prepanl1          0
          prepanl2          0
          prepanl3          0
          prepanl4          1
          prepanl5          1
          prepanl6          1
          prepanl7          0
           prtden1          1
           prtden2          0
           prtden3          0
           prtden4          1
           prtden5          0
           prtden6          0
           prtden7          0
           prteig           0
           prtpot1          0
           prtpot2          0
           prtpot3          1
           prtpot4          1
           prtpot5          1
           prtpot6          1
           prtpot7          0
            prtwf1          1
            prtwf2          1
            prtwf3          1
            prtwf4          1
            prtwf5          1
            prtwf6          1
            prtwf7          0
           rfelfd1          0
           rfelfd2          0
           rfelfd3          2
           rfelfd4          3
           rfelfd5          0
           rfelfd6          0
           rfelfd7          0
           rfphon1          0
           rfphon2          0
           rfphon3          0
           rfphon4          1
           rfphon5          0
           rfphon6          0
           rfphon7          0
           rfstrs1          0
           rfstrs2          0
           rfstrs3          0
           rfstrs4          3
           rfstrs5          0
           rfstrs6          0
           rfstrs7          0
         rf2_dkdk1          0
         rf2_dkdk2          0
         rf2_dkdk3          0
         rf2_dkdk4          0
         rf2_dkdk5          1
         rf2_dkdk6          0
         rf2_dkdk7          0
         rf2_dkde1          0
         rf2_dkde2          0
         rf2_dkde3          0
         rf2_dkde4          0
         rf2_dkde5          0
         rf2_dkde6          1
         rf2_dkde7          0
            rprim      5.9121747414E+00  0.0000000000E+00  0.0000000000E+00
                      -2.9560873707E+00  5.1200935176E+00  0.0000000000E+00
                       0.0000000000E+00  0.0000000000E+00  9.4806709296E+00
           shiftk      0.00000000E+00  0.00000000E+00  5.00000000E-01
          spgroup         186
           symrel      1  0  0   0  1  0   0  0  1       0  1  0   1  0  0   0  0  1
                       1  1  0  -1  0  0   0  0  1      -1  0  0   1  1  0   0  0  1
                       0  1  0  -1 -1  0   0  0  1      -1 -1  0   0  1  0   0  0  1
                      -1  0  0   0 -1  0   0  0  1       0 -1  0  -1  0  0   0  0  1
                      -1 -1  0   1  0  0   0  0  1       1  0  0  -1 -1  0   0  0  1
                       0 -1  0   1  1  0   0  0  1       1  1  0   0 -1  0   0  0  1
            tnons      0.0000000  0.0000000  0.0000000     0.0000000  0.0000000  0.5000000
                       0.0000000  0.0000000  0.5000000     0.0000000  0.0000000  0.0000000
                       0.0000000  0.0000000  0.0000000     0.0000000  0.0000000  0.5000000
                       0.0000000  0.0000000  0.5000000     0.0000000  0.0000000  0.0000000
                       0.0000000  0.0000000  0.0000000     0.0000000  0.0000000  0.5000000
                       0.0000000  0.0000000  0.5000000     0.0000000  0.0000000  0.0000000
           toldfe1     1.00000000E-12 Hartree
           toldfe2     0.00000000E+00 Hartree
           toldfe3     0.00000000E+00 Hartree
           toldfe4     0.00000000E+00 Hartree
           toldfe5     0.00000000E+00 Hartree
           toldfe6     0.00000000E+00 Hartree
           toldfe7     0.00000000E+00 Hartree
           tolvrs1     0.00000000E+00
           tolvrs2     0.00000000E+00
           tolvrs3     0.00000000E+00
           tolvrs4     1.00000000E-12
           tolvrs5     0.00000000E+00
           tolvrs6     0.00000000E+00
           tolvrs7     0.00000000E+00
           tolwfr1     0.00000000E+00
           tolwfr2     1.00000000E-22
           tolwfr3     1.00000000E-22
           tolwfr4     0.00000000E+00
           tolwfr5     1.00000000E-22
           tolwfr6     1.00000000E-22
           tolwfr7     0.00000000E+00
            typat      1  1  2  2
          usepead1          1
          usepead2          1
          usepead3          1
          usepead4          1
          usepead5          1
          usepead6          1
          usepead7          0
           useylm           1
              wtk1       0.01020    0.06122    0.06122    0.06122    0.06122    0.12245
                         0.06122    0.06122    0.01020    0.06122    0.06122    0.06122
                         0.06122    0.12245    0.06122    0.06122
              wtk2       0.01020    0.01020    0.01020    0.01020    0.01020    0.01020
                         0.01020    0.01020    0.01020    0.01020    0.01020    0.01020
                         0.01020    0.01020    0.01020    0.01020    0.01020    0.01020
                         0.01020    0.01020    0.01020    0.01020    0.01020    0.01020
                         0.01020    0.01020    0.01020    0.01020    0.01020    0.01020
                         0.01020    0.01020    0.01020    0.01020    0.01020    0.01020
                         0.01020    0.01020    0.01020    0.01020    0.01020    0.01020
                         0.01020    0.01020    0.01020    0.01020    0.01020    0.01020
                         0.01020    0.01020
              wtk3       0.01020    0.01020    0.01020    0.01020    0.01020    0.01020
                         0.01020    0.01020    0.01020    0.01020    0.01020    0.01020
                         0.01020    0.01020    0.01020    0.01020    0.01020    0.01020
                         0.01020    0.01020    0.01020    0.01020    0.01020    0.01020
                         0.01020    0.01020    0.01020    0.01020    0.01020    0.01020
                         0.01020    0.01020    0.01020    0.01020    0.01020    0.01020
                         0.01020    0.01020    0.01020    0.01020    0.01020    0.01020
                         0.01020    0.01020    0.01020    0.01020    0.01020    0.01020
                         0.01020    0.01020
              wtk4       0.01020    0.01020    0.01020    0.01020    0.01020    0.01020
                         0.01020    0.01020    0.01020    0.01020    0.01020    0.01020
                         0.01020    0.01020    0.01020    0.01020    0.01020    0.01020
                         0.01020    0.01020    0.01020    0.01020    0.01020    0.01020
                         0.01020    0.01020    0.01020    0.01020    0.01020    0.01020
                         0.01020    0.01020    0.01020    0.01020    0.01020    0.01020
                         0.01020    0.01020    0.01020    0.01020    0.01020    0.01020
                         0.01020    0.01020    0.01020    0.01020    0.01020    0.01020
                         0.01020    0.01020
              wtk5       0.01020    0.01020    0.01020    0.01020    0.01020    0.01020
                         0.01020    0.01020    0.01020    0.01020    0.01020    0.01020
                         0.01020    0.01020    0.01020    0.01020    0.01020    0.01020
                         0.01020    0.01020    0.01020    0.01020    0.01020    0.01020
                         0.01020    0.01020    0.01020    0.01020    0.01020    0.01020
                         0.01020    0.01020    0.01020    0.01020    0.01020    0.01020
                         0.01020    0.01020    0.01020    0.01020    0.01020    0.01020
                         0.01020    0.01020    0.01020    0.01020    0.01020    0.01020
                         0.01020    0.01020
              wtk6       0.01020    0.01020    0.01020    0.01020    0.01020    0.01020
                         0.01020    0.01020    0.01020    0.01020    0.01020    0.01020
                         0.01020    0.01020    0.01020    0.01020    0.01020    0.01020
                         0.01020    0.01020    0.01020    0.01020    0.01020    0.01020
                         0.01020    0.01020    0.01020    0.01020    0.01020    0.01020
                         0.01020    0.01020    0.01020    0.01020    0.01020    0.01020
                         0.01020    0.01020    0.01020    0.01020    0.01020    0.01020
                         0.01020    0.01020    0.01020    0.01020    0.01020    0.01020
                         0.01020    0.01020
              wtk7       0.01020    0.01020    0.01020    0.01020    0.01020    0.01020
                         0.01020    0.01020    0.01020    0.01020    0.01020    0.01020
                         0.01020    0.01020    0.01020    0.01020    0.01020    0.01020
                         0.01020    0.01020    0.01020    0.01020    0.01020    0.01020
                         0.01020    0.01020    0.01020    0.01020    0.01020    0.01020
                         0.01020    0.01020    0.01020    0.01020    0.01020    0.01020
                         0.01020    0.01020    0.01020    0.01020    0.01020    0.01020
                         0.01020    0.01020    0.01020    0.01020    0.01020    0.01020
                         0.01020    0.01020
                       outvars : Printing only first  50 k-points.
           xangst     -2.3883303541E-17  1.8062911969E+00  5.0133778892E+00
                       1.5642940632E+00  9.0314559845E-01  2.5049004001E+00
                      -2.3883303541E-17  1.8062911969E+00  1.9100199806E+00
                       1.5642940632E+00  9.0314559845E-01  4.4184974696E+00
            xcart     -4.5132902841E-17  3.4133956784E+00  9.4739112112E+00
                       2.9560873707E+00  1.7066978392E+00  4.7335757464E+00
                      -4.5132902841E-17  3.4133956784E+00  3.6094146716E+00
                       2.9560873707E+00  1.7066978392E+00  8.3497501364E+00
             xred      3.3333333333E-01  6.6666666667E-01  9.9928700000E-01
                       6.6666666667E-01  3.3333333333E-01  4.9928700000E-01
                       3.3333333333E-01  6.6666666667E-01  3.8071300000E-01
                       6.6666666667E-01  3.3333333333E-01  8.8071300000E-01
            znucl       13.00000    7.00000

================================================================================

 chkinp: Checking input parameters for consistency, jdtset=   1.

 chkinp: Checking input parameters for consistency, jdtset=   2.

 chkinp: Checking input parameters for consistency, jdtset=   3.

 chkinp: Checking input parameters for consistency, jdtset=   4.

--- !ERROR
src_file: m_chkinp.F90
src_line: 2939
mpi_rank: 0
message: |
    You are performing a DFPT+PAW calculation using a GGA XC functional:
      Response to strain perturbation is not yet available!
...


 chkinp: Checking input parameters for consistency, jdtset=   5.

 chkinp: Checking input parameters for consistency, jdtset=   6.

 chkinp: Checking input parameters for consistency, jdtset=   7.

 chkint_prt: ERROR -
 Context: the value of the variable ixc is -101130.
  The value of the input variable optdriver is 5, while it must be
  different from one of the following: 5
  Action: you should change the input variables optdriver or ixc.

 chkint_prt: ERROR -
 Context: the value of the variable ixc is -101130.
  The value of the input variable optdriver is 5, while it must be
  different from one of the following: 5
  Action: you should change the input variables optdriver or ixc.

--- !ERROR
src_file: m_chkinp.F90
src_line: 4617
mpi_rank: 0
message: |
    Checking consistency of input data against itself gave 2 inconsistencies.
    The details of the problems can be found above (or in output or log file), in an earlier WARNING.
    In parallel, the details might not even be printed there. Then, try running in sequential to see the details.
...

