
.Version 10.4.5 of ABINIT, released Jul 2025.
.(MPI version, prepared for a x86_64_linux_gnu11.2 computer) 

.Copyright (C) 1998-2025 ABINIT group . 
 ABINIT comes with ABSOLUTELY NO WARRANTY.
 It is free software, and you are welcome to redistribute it
 under certain conditions (GNU General Public License,
 see ~abinit/COPYING or http://www.gnu.org/copyleft/gpl.txt).

 ABINIT is a project of the Universite Catholique de Louvain,
 Corning Inc. and other collaborators, see ~abinit/doc/developers/contributors.txt .
 Please read https://docs.abinit.org/theory/acknowledgments for suggested
 acknowledgments of the ABINIT effort.
 For more information, see https://www.abinit.org .

.Starting date : Sat 23 Aug 2025.
- ( at 10h34 )
  
- input  file    -> tnlo_2.abi
- output file    -> tnlo_2.abo
- root for input  files -> tnlo_2i
- root for output files -> tnlo_2o

 DATASET    1 : space group P6_3 m c (#186); Bravais hP (primitive hexag.)
================================================================================
 Values of the parameters that define the memory need for DATASET  1.
     intxc =       0    ionmov =       0      iscf =       7    lmnmax =       6
     lnmax =       6     mgfft =      50  mpssoang =       3    mqgrid =    3001
     natom =       4  nloc_mem =       1    nspden =       1   nspinor =       1
    nsppol =       1      nsym =      12    n1xccc =    2501    ntypat =       2
    occopt =       1   xclevel =       1
-    mband =           8        mffmem =           1         mkmem =           1
       mpw =        2629          nfft =       51200          nkpt =          76
================================================================================
P This job should need less than                      18.155 Mbytes of memory.
  Rough estimation (10% accuracy) of disk space for files :
_ WF disk file :     24.392 Mbytes ; DEN or POT disk file :      0.393 Mbytes.
================================================================================

 DATASET    2 : space group P6_3 m c (#186); Bravais hP (primitive hexag.)
================================================================================
 Values of the parameters that define the memory need for DATASET  2.
     intxc =       0    ionmov =       0      iscf =      -2    lmnmax =       6
     lnmax =       6     mgfft =      50  mpssoang =       3    mqgrid =    3001
     natom =       4  nloc_mem =       1    nspden =       1   nspinor =       1
    nsppol =       1      nsym =      12    n1xccc =    2501    ntypat =       2
    occopt =       1   xclevel =       1
-    mband =           8        mffmem =           1         mkmem =           6
       mpw =        2629          nfft =       51200          nkpt =         506
================================================================================
P This job should need less than                      14.343 Mbytes of memory.
  Rough estimation (10% accuracy) of disk space for files :
_ WF disk file :    162.389 Mbytes ; DEN or POT disk file :      0.393 Mbytes.
================================================================================

 DATASET    3 : space group P6_3 m c (#186); Bravais hP (primitive hexag.)
================================================================================
 Values of the parameters that define the memory need for DATASET  3 (RF).
     intxc =       0      iscf =       7    lmnmax =       6     lnmax =       6
     mgfft =      50  mpssoang =       3    mqgrid =    3001     natom =       4
  nloc_mem =       1    nspden =       1   nspinor =       1    nsppol =       1
      nsym =      12    n1xccc =    2501    ntypat =       2    occopt =       1
   xclevel =       1
-    mband =           8        mffmem =           1         mkmem =           6
-   mkqmem =           6        mk1mem =           6           mpw =        2629
      nfft =       51200          nkpt =         506
================================================================================
P This job should need less than                      20.089 Mbytes of memory.
  Rough estimation (10% accuracy) of disk space for files :
_ WF disk file :    162.389 Mbytes ; DEN or POT disk file :      0.393 Mbytes.
================================================================================

 DATASET    4 : space group P6_3 m c (#186); Bravais hP (primitive hexag.)
================================================================================
 Values of the parameters that define the memory need for DATASET  4 (RF).
     intxc =       0      iscf =       7    lmnmax =       6     lnmax =       6
     mgfft =      50  mpssoang =       3    mqgrid =    3001     natom =       4
  nloc_mem =       1    nspden =       1   nspinor =       1    nsppol =       1
      nsym =      12    n1xccc =    2501    ntypat =       2    occopt =       1
   xclevel =       1
-    mband =           8        mffmem =           1         mkmem =           6
-   mkqmem =           6        mk1mem =           6           mpw =        2629
      nfft =       51200          nkpt =         506
================================================================================
P This job should need less than                      20.089 Mbytes of memory.
  Rough estimation (10% accuracy) of disk space for files :
_ WF disk file :    162.389 Mbytes ; DEN or POT disk file :      0.393 Mbytes.
================================================================================

 DATASET    5 : space group P6_3 m c (#186); Bravais hP (primitive hexag.)
================================================================================
 Values of the parameters that define the memory need for DATASET  5.
     intxc =       0    ionmov =       0      iscf =       7    lmnmax =       6
     lnmax =       6     mgfft =      50  mpssoang =       3    mqgrid =    3001
     natom =       4  nloc_mem =       1    nspden =       1   nspinor =       1
    nsppol =       1      nsym =      12    n1xccc =    2501    ntypat =       2
    occopt =       1   xclevel =       1
-    mband =           8        mffmem =           1         mkmem =           6
       mpw =        2629          nfft =       51200          nkpt =         506
================================================================================
P This job should need less than                      20.593 Mbytes of memory.
  Rough estimation (10% accuracy) of disk space for files :
_ WF disk file :    162.389 Mbytes ; DEN or POT disk file :      0.393 Mbytes.
================================================================================

--------------------------------------------------------------------------------
------------- Echo of variables that govern the present computation ------------
--------------------------------------------------------------------------------
-
- outvars: echo of selected default values
-   iomode0 =  0 , fftalg0 =512 , wfoptalg0 =  0
-
- outvars: echo of global parameters not present in the input file
-  max_nthreads =    1
-
 -outvars: echo values of preprocessed input variables --------
            acell      1.0000000000E+00  1.0000000000E+00  1.0000000000E+00 Bohr
              amu      2.69815390E+01  1.40067400E+01
          dilatmx      1.05000000E+00
   d3e_pert1_elfd1          0
   d3e_pert1_elfd2          0
   d3e_pert1_elfd3          0
   d3e_pert1_elfd4          0
   d3e_pert1_elfd5          1
   d3e_pert1_phon1          0
   d3e_pert1_phon2          0
   d3e_pert1_phon3          0
   d3e_pert1_phon4          0
   d3e_pert1_phon5          1
   d3e_pert2_elfd1          0
   d3e_pert2_elfd2          0
   d3e_pert2_elfd3          0
   d3e_pert2_elfd4          0
   d3e_pert2_elfd5          1
   d3e_pert3_elfd1          0
   d3e_pert3_elfd2          0
   d3e_pert3_elfd3          0
   d3e_pert3_elfd4          0
   d3e_pert3_elfd5          1
             ecut      3.00000000E+01 Hartree
-          fftalg         512
           getddk1          0
           getddk2          0
           getddk3          0
           getddk4          3
           getddk5          0
           getden1          0
           getden2          1
           getden3          0
           getden4          0
           getden5          0
           getwfk1          0
           getwfk2          1
           getwfk3          2
           getwfk4          2
           getwfk5          2
          get1den1          0
          get1den2          0
          get1den3          0
          get1den4          0
          get1den5          4
           get1wf1          0
           get1wf2          0
           get1wf3          0
           get1wf4          0
           get1wf5          4
             iscf1          7
             iscf2         -2
             iscf3          7
             iscf4          7
             iscf5          7
              ixc       -1012
           jdtset        1    2    3    4    5
              kpt1     0.00000000E+00  0.00000000E+00  7.14285714E-02
                       8.33333333E-02  0.00000000E+00  7.14285714E-02
                       1.66666667E-01  0.00000000E+00  7.14285714E-02
                       2.50000000E-01  0.00000000E+00  7.14285714E-02
                       3.33333333E-01  0.00000000E+00  7.14285714E-02
                       4.16666667E-01  0.00000000E+00  7.14285714E-02
                       5.00000000E-01  0.00000000E+00  7.14285714E-02
                       8.33333333E-02  8.33333333E-02  7.14285714E-02
                       1.66666667E-01  8.33333333E-02  7.14285714E-02
                       2.50000000E-01  8.33333333E-02  7.14285714E-02
                       3.33333333E-01  8.33333333E-02  7.14285714E-02
                       4.16666667E-01  8.33333333E-02  7.14285714E-02
                       1.66666667E-01  1.66666667E-01  7.14285714E-02
                       2.50000000E-01  1.66666667E-01  7.14285714E-02
                       3.33333333E-01  1.66666667E-01  7.14285714E-02
                       4.16666667E-01  1.66666667E-01  7.14285714E-02
                       2.50000000E-01  2.50000000E-01  7.14285714E-02
                       3.33333333E-01  2.50000000E-01  7.14285714E-02
                       3.33333333E-01  3.33333333E-01  7.14285714E-02
                       0.00000000E+00  0.00000000E+00  2.14285714E-01
                       8.33333333E-02  0.00000000E+00  2.14285714E-01
                       1.66666667E-01  0.00000000E+00  2.14285714E-01
                       2.50000000E-01  0.00000000E+00  2.14285714E-01
                       3.33333333E-01  0.00000000E+00  2.14285714E-01
                       4.16666667E-01  0.00000000E+00  2.14285714E-01
                       5.00000000E-01  0.00000000E+00  2.14285714E-01
                       8.33333333E-02  8.33333333E-02  2.14285714E-01
                       1.66666667E-01  8.33333333E-02  2.14285714E-01
                       2.50000000E-01  8.33333333E-02  2.14285714E-01
                       3.33333333E-01  8.33333333E-02  2.14285714E-01
                       4.16666667E-01  8.33333333E-02  2.14285714E-01
                       1.66666667E-01  1.66666667E-01  2.14285714E-01
                       2.50000000E-01  1.66666667E-01  2.14285714E-01
                       3.33333333E-01  1.66666667E-01  2.14285714E-01
                       4.16666667E-01  1.66666667E-01  2.14285714E-01
                       2.50000000E-01  2.50000000E-01  2.14285714E-01
                       3.33333333E-01  2.50000000E-01  2.14285714E-01
                       3.33333333E-01  3.33333333E-01  2.14285714E-01
                       0.00000000E+00  0.00000000E+00  3.57142857E-01
                       8.33333333E-02  0.00000000E+00  3.57142857E-01
                       1.66666667E-01  0.00000000E+00  3.57142857E-01
                       2.50000000E-01  0.00000000E+00  3.57142857E-01
                       3.33333333E-01  0.00000000E+00  3.57142857E-01
                       4.16666667E-01  0.00000000E+00  3.57142857E-01
                       5.00000000E-01  0.00000000E+00  3.57142857E-01
                       8.33333333E-02  8.33333333E-02  3.57142857E-01
                       1.66666667E-01  8.33333333E-02  3.57142857E-01
                       2.50000000E-01  8.33333333E-02  3.57142857E-01
                       3.33333333E-01  8.33333333E-02  3.57142857E-01
                       4.16666667E-01  8.33333333E-02  3.57142857E-01
              kpt2     0.00000000E+00  0.00000000E+00  7.14285714E-02
                       8.33333333E-02  0.00000000E+00  7.14285714E-02
                       1.66666667E-01  0.00000000E+00  7.14285714E-02
                       2.50000000E-01  0.00000000E+00  7.14285714E-02
                       3.33333333E-01  0.00000000E+00  7.14285714E-02
                       4.16666667E-01  0.00000000E+00  7.14285714E-02
                       5.00000000E-01  0.00000000E+00  7.14285714E-02
                      -4.16666667E-01  0.00000000E+00  7.14285714E-02
                      -3.33333333E-01  0.00000000E+00  7.14285714E-02
                      -2.50000000E-01  0.00000000E+00  7.14285714E-02
                      -1.66666667E-01  0.00000000E+00  7.14285714E-02
                      -8.33333333E-02  0.00000000E+00  7.14285714E-02
                       0.00000000E+00  8.33333333E-02  7.14285714E-02
                       8.33333333E-02  8.33333333E-02  7.14285714E-02
                       1.66666667E-01  8.33333333E-02  7.14285714E-02
                       2.50000000E-01  8.33333333E-02  7.14285714E-02
                       3.33333333E-01  8.33333333E-02  7.14285714E-02
                       4.16666667E-01  8.33333333E-02  7.14285714E-02
                       5.00000000E-01  8.33333333E-02  7.14285714E-02
                      -4.16666667E-01  8.33333333E-02  7.14285714E-02
                      -3.33333333E-01  8.33333333E-02  7.14285714E-02
                      -2.50000000E-01  8.33333333E-02  7.14285714E-02
                      -1.66666667E-01  8.33333333E-02  7.14285714E-02
                      -8.33333333E-02  8.33333333E-02  7.14285714E-02
                       0.00000000E+00  1.66666667E-01  7.14285714E-02
                       8.33333333E-02  1.66666667E-01  7.14285714E-02
                       1.66666667E-01  1.66666667E-01  7.14285714E-02
                       2.50000000E-01  1.66666667E-01  7.14285714E-02
                       3.33333333E-01  1.66666667E-01  7.14285714E-02
                       4.16666667E-01  1.66666667E-01  7.14285714E-02
                       5.00000000E-01  1.66666667E-01  7.14285714E-02
                      -4.16666667E-01  1.66666667E-01  7.14285714E-02
                      -3.33333333E-01  1.66666667E-01  7.14285714E-02
                      -2.50000000E-01  1.66666667E-01  7.14285714E-02
                      -1.66666667E-01  1.66666667E-01  7.14285714E-02
                      -8.33333333E-02  1.66666667E-01  7.14285714E-02
                       0.00000000E+00  2.50000000E-01  7.14285714E-02
                       8.33333333E-02  2.50000000E-01  7.14285714E-02
                       1.66666667E-01  2.50000000E-01  7.14285714E-02
                       2.50000000E-01  2.50000000E-01  7.14285714E-02
                       3.33333333E-01  2.50000000E-01  7.14285714E-02
                       4.16666667E-01  2.50000000E-01  7.14285714E-02
                       5.00000000E-01  2.50000000E-01  7.14285714E-02
                      -4.16666667E-01  2.50000000E-01  7.14285714E-02
                      -3.33333333E-01  2.50000000E-01  7.14285714E-02
                      -2.50000000E-01  2.50000000E-01  7.14285714E-02
                      -1.66666667E-01  2.50000000E-01  7.14285714E-02
                      -8.33333333E-02  2.50000000E-01  7.14285714E-02
                       0.00000000E+00  3.33333333E-01  7.14285714E-02
                       8.33333333E-02  3.33333333E-01  7.14285714E-02
              kpt3     0.00000000E+00  0.00000000E+00  7.14285714E-02
                       8.33333333E-02  0.00000000E+00  7.14285714E-02
                       1.66666667E-01  0.00000000E+00  7.14285714E-02
                       2.50000000E-01  0.00000000E+00  7.14285714E-02
                       3.33333333E-01  0.00000000E+00  7.14285714E-02
                       4.16666667E-01  0.00000000E+00  7.14285714E-02
                       5.00000000E-01  0.00000000E+00  7.14285714E-02
                      -4.16666667E-01  0.00000000E+00  7.14285714E-02
                      -3.33333333E-01  0.00000000E+00  7.14285714E-02
                      -2.50000000E-01  0.00000000E+00  7.14285714E-02
                      -1.66666667E-01  0.00000000E+00  7.14285714E-02
                      -8.33333333E-02  0.00000000E+00  7.14285714E-02
                       0.00000000E+00  8.33333333E-02  7.14285714E-02
                       8.33333333E-02  8.33333333E-02  7.14285714E-02
                       1.66666667E-01  8.33333333E-02  7.14285714E-02
                       2.50000000E-01  8.33333333E-02  7.14285714E-02
                       3.33333333E-01  8.33333333E-02  7.14285714E-02
                       4.16666667E-01  8.33333333E-02  7.14285714E-02
                       5.00000000E-01  8.33333333E-02  7.14285714E-02
                      -4.16666667E-01  8.33333333E-02  7.14285714E-02
                      -3.33333333E-01  8.33333333E-02  7.14285714E-02
                      -2.50000000E-01  8.33333333E-02  7.14285714E-02
                      -1.66666667E-01  8.33333333E-02  7.14285714E-02
                      -8.33333333E-02  8.33333333E-02  7.14285714E-02
                       0.00000000E+00  1.66666667E-01  7.14285714E-02
                       8.33333333E-02  1.66666667E-01  7.14285714E-02
                       1.66666667E-01  1.66666667E-01  7.14285714E-02
                       2.50000000E-01  1.66666667E-01  7.14285714E-02
                       3.33333333E-01  1.66666667E-01  7.14285714E-02
                       4.16666667E-01  1.66666667E-01  7.14285714E-02
                       5.00000000E-01  1.66666667E-01  7.14285714E-02
                      -4.16666667E-01  1.66666667E-01  7.14285714E-02
                      -3.33333333E-01  1.66666667E-01  7.14285714E-02
                      -2.50000000E-01  1.66666667E-01  7.14285714E-02
                      -1.66666667E-01  1.66666667E-01  7.14285714E-02
                      -8.33333333E-02  1.66666667E-01  7.14285714E-02
                       0.00000000E+00  2.50000000E-01  7.14285714E-02
                       8.33333333E-02  2.50000000E-01  7.14285714E-02
                       1.66666667E-01  2.50000000E-01  7.14285714E-02
                       2.50000000E-01  2.50000000E-01  7.14285714E-02
                       3.33333333E-01  2.50000000E-01  7.14285714E-02
                       4.16666667E-01  2.50000000E-01  7.14285714E-02
                       5.00000000E-01  2.50000000E-01  7.14285714E-02
                      -4.16666667E-01  2.50000000E-01  7.14285714E-02
                      -3.33333333E-01  2.50000000E-01  7.14285714E-02
                      -2.50000000E-01  2.50000000E-01  7.14285714E-02
                      -1.66666667E-01  2.50000000E-01  7.14285714E-02
                      -8.33333333E-02  2.50000000E-01  7.14285714E-02
                       0.00000000E+00  3.33333333E-01  7.14285714E-02
                       8.33333333E-02  3.33333333E-01  7.14285714E-02
              kpt4     0.00000000E+00  0.00000000E+00  7.14285714E-02
                       8.33333333E-02  0.00000000E+00  7.14285714E-02
                       1.66666667E-01  0.00000000E+00  7.14285714E-02
                       2.50000000E-01  0.00000000E+00  7.14285714E-02
                       3.33333333E-01  0.00000000E+00  7.14285714E-02
                       4.16666667E-01  0.00000000E+00  7.14285714E-02
                       5.00000000E-01  0.00000000E+00  7.14285714E-02
                      -4.16666667E-01  0.00000000E+00  7.14285714E-02
                      -3.33333333E-01  0.00000000E+00  7.14285714E-02
                      -2.50000000E-01  0.00000000E+00  7.14285714E-02
                      -1.66666667E-01  0.00000000E+00  7.14285714E-02
                      -8.33333333E-02  0.00000000E+00  7.14285714E-02
                       0.00000000E+00  8.33333333E-02  7.14285714E-02
                       8.33333333E-02  8.33333333E-02  7.14285714E-02
                       1.66666667E-01  8.33333333E-02  7.14285714E-02
                       2.50000000E-01  8.33333333E-02  7.14285714E-02
                       3.33333333E-01  8.33333333E-02  7.14285714E-02
                       4.16666667E-01  8.33333333E-02  7.14285714E-02
                       5.00000000E-01  8.33333333E-02  7.14285714E-02
                      -4.16666667E-01  8.33333333E-02  7.14285714E-02
                      -3.33333333E-01  8.33333333E-02  7.14285714E-02
                      -2.50000000E-01  8.33333333E-02  7.14285714E-02
                      -1.66666667E-01  8.33333333E-02  7.14285714E-02
                      -8.33333333E-02  8.33333333E-02  7.14285714E-02
                       0.00000000E+00  1.66666667E-01  7.14285714E-02
                       8.33333333E-02  1.66666667E-01  7.14285714E-02
                       1.66666667E-01  1.66666667E-01  7.14285714E-02
                       2.50000000E-01  1.66666667E-01  7.14285714E-02
                       3.33333333E-01  1.66666667E-01  7.14285714E-02
                       4.16666667E-01  1.66666667E-01  7.14285714E-02
                       5.00000000E-01  1.66666667E-01  7.14285714E-02
                      -4.16666667E-01  1.66666667E-01  7.14285714E-02
                      -3.33333333E-01  1.66666667E-01  7.14285714E-02
                      -2.50000000E-01  1.66666667E-01  7.14285714E-02
                      -1.66666667E-01  1.66666667E-01  7.14285714E-02
                      -8.33333333E-02  1.66666667E-01  7.14285714E-02
                       0.00000000E+00  2.50000000E-01  7.14285714E-02
                       8.33333333E-02  2.50000000E-01  7.14285714E-02
                       1.66666667E-01  2.50000000E-01  7.14285714E-02
                       2.50000000E-01  2.50000000E-01  7.14285714E-02
                       3.33333333E-01  2.50000000E-01  7.14285714E-02
                       4.16666667E-01  2.50000000E-01  7.14285714E-02
                       5.00000000E-01  2.50000000E-01  7.14285714E-02
                      -4.16666667E-01  2.50000000E-01  7.14285714E-02
                      -3.33333333E-01  2.50000000E-01  7.14285714E-02
                      -2.50000000E-01  2.50000000E-01  7.14285714E-02
                      -1.66666667E-01  2.50000000E-01  7.14285714E-02
                      -8.33333333E-02  2.50000000E-01  7.14285714E-02
                       0.00000000E+00  3.33333333E-01  7.14285714E-02
                       8.33333333E-02  3.33333333E-01  7.14285714E-02
              kpt5     0.00000000E+00  0.00000000E+00  7.14285714E-02
                       8.33333333E-02  0.00000000E+00  7.14285714E-02
                       1.66666667E-01  0.00000000E+00  7.14285714E-02
                       2.50000000E-01  0.00000000E+00  7.14285714E-02
                       3.33333333E-01  0.00000000E+00  7.14285714E-02
                       4.16666667E-01  0.00000000E+00  7.14285714E-02
                       5.00000000E-01  0.00000000E+00  7.14285714E-02
                      -4.16666667E-01  0.00000000E+00  7.14285714E-02
                      -3.33333333E-01  0.00000000E+00  7.14285714E-02
                      -2.50000000E-01  0.00000000E+00  7.14285714E-02
                      -1.66666667E-01  0.00000000E+00  7.14285714E-02
                      -8.33333333E-02  0.00000000E+00  7.14285714E-02
                       0.00000000E+00  8.33333333E-02  7.14285714E-02
                       8.33333333E-02  8.33333333E-02  7.14285714E-02
                       1.66666667E-01  8.33333333E-02  7.14285714E-02
                       2.50000000E-01  8.33333333E-02  7.14285714E-02
                       3.33333333E-01  8.33333333E-02  7.14285714E-02
                       4.16666667E-01  8.33333333E-02  7.14285714E-02
                       5.00000000E-01  8.33333333E-02  7.14285714E-02
                      -4.16666667E-01  8.33333333E-02  7.14285714E-02
                      -3.33333333E-01  8.33333333E-02  7.14285714E-02
                      -2.50000000E-01  8.33333333E-02  7.14285714E-02
                      -1.66666667E-01  8.33333333E-02  7.14285714E-02
                      -8.33333333E-02  8.33333333E-02  7.14285714E-02
                       0.00000000E+00  1.66666667E-01  7.14285714E-02
                       8.33333333E-02  1.66666667E-01  7.14285714E-02
                       1.66666667E-01  1.66666667E-01  7.14285714E-02
                       2.50000000E-01  1.66666667E-01  7.14285714E-02
                       3.33333333E-01  1.66666667E-01  7.14285714E-02
                       4.16666667E-01  1.66666667E-01  7.14285714E-02
                       5.00000000E-01  1.66666667E-01  7.14285714E-02
                      -4.16666667E-01  1.66666667E-01  7.14285714E-02
                      -3.33333333E-01  1.66666667E-01  7.14285714E-02
                      -2.50000000E-01  1.66666667E-01  7.14285714E-02
                      -1.66666667E-01  1.66666667E-01  7.14285714E-02
                      -8.33333333E-02  1.66666667E-01  7.14285714E-02
                       0.00000000E+00  2.50000000E-01  7.14285714E-02
                       8.33333333E-02  2.50000000E-01  7.14285714E-02
                       1.66666667E-01  2.50000000E-01  7.14285714E-02
                       2.50000000E-01  2.50000000E-01  7.14285714E-02
                       3.33333333E-01  2.50000000E-01  7.14285714E-02
                       4.16666667E-01  2.50000000E-01  7.14285714E-02
                       5.00000000E-01  2.50000000E-01  7.14285714E-02
                      -4.16666667E-01  2.50000000E-01  7.14285714E-02
                      -3.33333333E-01  2.50000000E-01  7.14285714E-02
                      -2.50000000E-01  2.50000000E-01  7.14285714E-02
                      -1.66666667E-01  2.50000000E-01  7.14285714E-02
                      -8.33333333E-02  2.50000000E-01  7.14285714E-02
                       0.00000000E+00  3.33333333E-01  7.14285714E-02
                       8.33333333E-02  3.33333333E-01  7.14285714E-02
                       outvar_i_n : Printing only first  50 k-points.
           kptopt1          1
           kptopt2          2
           kptopt3          2
           kptopt4          2
           kptopt5          2
         kptrlatt       12    0    0      0   12    0      0    0    7
          kptrlen      6.63646965E+01
P           mkmem1          1
P           mkmem2          6
P           mkmem3          6
P           mkmem4          6
P           mkmem5          6
P          mkqmem1          1
P          mkqmem2          6
P          mkqmem3          6
P          mkqmem4          6
P          mkqmem5          6
P          mk1mem1          1
P          mk1mem2          6
P          mk1mem3          6
P          mk1mem4          6
P          mk1mem5          6
            natom           4
            nband1          8
            nband2          8
            nband3          8
            nband4          8
            nband5          8
           ndtset           5
            ngfft          32      32      50
             nkpt1         76
             nkpt2        506
             nkpt3        506
             nkpt4        506
             nkpt5        506
            nstep         200
             nsym          12
           ntypat           2
              occ1     2.000000  2.000000  2.000000  2.000000  2.000000  2.000000
                       2.000000  2.000000
              occ3     2.000000  2.000000  2.000000  2.000000  2.000000  2.000000
                       2.000000  2.000000
              occ4     2.000000  2.000000  2.000000  2.000000  2.000000  2.000000
                       2.000000  2.000000
              occ5     2.000000  2.000000  2.000000  2.000000  2.000000  2.000000
                       2.000000  2.000000
        optdriver1          0
        optdriver2          0
        optdriver3          1
        optdriver4          1
        optdriver5          5
        pawecutdg      3.00000000E+01 Hartree
          prepanl1          0
          prepanl2          0
          prepanl3          0
          prepanl4          1
          prepanl5          0
           prtden1          1
           prtden2          0
           prtden3          0
           prtden4          1
           prtden5          0
           prteig           0
           prtpot1          0
           prtpot2          0
           prtpot3          1
           prtpot4          1
           prtpot5          0
            prtwf1          1
            prtwf2          1
            prtwf3          1
            prtwf4          1
            prtwf5          0
           rfelfd1          0
           rfelfd2          0
           rfelfd3          2
           rfelfd4          3
           rfelfd5          0
           rfphon1          0
           rfphon2          0
           rfphon3          0
           rfphon4          1
           rfphon5          0
           rfstrs1          0
           rfstrs2          0
           rfstrs3          0
           rfstrs4          3
           rfstrs5          0
            rprim      5.9121747414E+00  0.0000000000E+00  0.0000000000E+00
                      -2.9560873707E+00  5.1200935176E+00  0.0000000000E+00
                       0.0000000000E+00  0.0000000000E+00  9.4806709296E+00
           shiftk      0.00000000E+00  0.00000000E+00  5.00000000E-01
          spgroup         186
           symrel      1  0  0   0  1  0   0  0  1       0  1  0   1  0  0   0  0  1
                       1  1  0  -1  0  0   0  0  1      -1  0  0   1  1  0   0  0  1
                       0  1  0  -1 -1  0   0  0  1      -1 -1  0   0  1  0   0  0  1
                      -1  0  0   0 -1  0   0  0  1       0 -1  0  -1  0  0   0  0  1
                      -1 -1  0   1  0  0   0  0  1       1  0  0  -1 -1  0   0  0  1
                       0 -1  0   1  1  0   0  0  1       1  1  0   0 -1  0   0  0  1
            tnons      0.0000000  0.0000000  0.0000000     0.0000000  0.0000000  0.5000000
                       0.0000000  0.0000000  0.5000000     0.0000000  0.0000000  0.0000000
                       0.0000000  0.0000000  0.0000000     0.0000000  0.0000000  0.5000000
                       0.0000000  0.0000000  0.5000000     0.0000000  0.0000000  0.0000000
                       0.0000000  0.0000000  0.0000000     0.0000000  0.0000000  0.5000000
                       0.0000000  0.0000000  0.5000000     0.0000000  0.0000000  0.0000000
           toldfe1     1.00000000E-12 Hartree
           toldfe2     0.00000000E+00 Hartree
           toldfe3     0.00000000E+00 Hartree
           toldfe4     0.00000000E+00 Hartree
           toldfe5     0.00000000E+00 Hartree
           tolvrs1     0.00000000E+00
           tolvrs2     0.00000000E+00
           tolvrs3     0.00000000E+00
           tolvrs4     1.00000000E-12
           tolvrs5     0.00000000E+00
           tolwfr1     0.00000000E+00
           tolwfr2     1.00000000E-22
           tolwfr3     1.00000000E-22
           tolwfr4     0.00000000E+00
           tolwfr5     0.00000000E+00
            typat      1  1  2  2
              wtk1       0.00198    0.01190    0.01190    0.01190    0.01190    0.01190
                         0.00595    0.01190    0.02381    0.02381    0.02381    0.02381
                         0.01190    0.02381    0.02381    0.01190    0.01190    0.02381
                         0.00397    0.00198    0.01190    0.01190    0.01190    0.01190
                         0.01190    0.00595    0.01190    0.02381    0.02381    0.02381
                         0.02381    0.01190    0.02381    0.02381    0.01190    0.01190
                         0.02381    0.00397    0.00198    0.01190    0.01190    0.01190
                         0.01190    0.01190    0.00595    0.01190    0.02381    0.02381
                         0.02381    0.02381
              wtk2       0.00198    0.00198    0.00198    0.00198    0.00198    0.00198
                         0.00198    0.00198    0.00198    0.00198    0.00198    0.00198
                         0.00198    0.00198    0.00198    0.00198    0.00198    0.00198
                         0.00198    0.00198    0.00198    0.00198    0.00198    0.00198
                         0.00198    0.00198    0.00198    0.00198    0.00198    0.00198
                         0.00198    0.00198    0.00198    0.00198    0.00198    0.00198
                         0.00198    0.00198    0.00198    0.00198    0.00198    0.00198
                         0.00198    0.00198    0.00198    0.00198    0.00198    0.00198
                         0.00198    0.00198
              wtk3       0.00198    0.00198    0.00198    0.00198    0.00198    0.00198
                         0.00198    0.00198    0.00198    0.00198    0.00198    0.00198
                         0.00198    0.00198    0.00198    0.00198    0.00198    0.00198
                         0.00198    0.00198    0.00198    0.00198    0.00198    0.00198
                         0.00198    0.00198    0.00198    0.00198    0.00198    0.00198
                         0.00198    0.00198    0.00198    0.00198    0.00198    0.00198
                         0.00198    0.00198    0.00198    0.00198    0.00198    0.00198
                         0.00198    0.00198    0.00198    0.00198    0.00198    0.00198
                         0.00198    0.00198
              wtk4       0.00198    0.00198    0.00198    0.00198    0.00198    0.00198
                         0.00198    0.00198    0.00198    0.00198    0.00198    0.00198
                         0.00198    0.00198    0.00198    0.00198    0.00198    0.00198
                         0.00198    0.00198    0.00198    0.00198    0.00198    0.00198
                         0.00198    0.00198    0.00198    0.00198    0.00198    0.00198
                         0.00198    0.00198    0.00198    0.00198    0.00198    0.00198
                         0.00198    0.00198    0.00198    0.00198    0.00198    0.00198
                         0.00198    0.00198    0.00198    0.00198    0.00198    0.00198
                         0.00198    0.00198
              wtk5       0.00198    0.00198    0.00198    0.00198    0.00198    0.00198
                         0.00198    0.00198    0.00198    0.00198    0.00198    0.00198
                         0.00198    0.00198    0.00198    0.00198    0.00198    0.00198
                         0.00198    0.00198    0.00198    0.00198    0.00198    0.00198
                         0.00198    0.00198    0.00198    0.00198    0.00198    0.00198
                         0.00198    0.00198    0.00198    0.00198    0.00198    0.00198
                         0.00198    0.00198    0.00198    0.00198    0.00198    0.00198
                         0.00198    0.00198    0.00198    0.00198    0.00198    0.00198
                         0.00198    0.00198
                       outvars : Printing only first  50 k-points.
           xangst     -2.3883303541E-17  1.8062911969E+00  5.0133778892E+00
                       1.5642940632E+00  9.0314559845E-01  2.5049004001E+00
                      -2.3883303541E-17  1.8062911969E+00  1.9100199806E+00
                       1.5642940632E+00  9.0314559845E-01  4.4184974696E+00
            xcart     -4.5132902841E-17  3.4133956784E+00  9.4739112112E+00
                       2.9560873707E+00  1.7066978392E+00  4.7335757464E+00
                      -4.5132902841E-17  3.4133956784E+00  3.6094146716E+00
                       2.9560873707E+00  1.7066978392E+00  8.3497501364E+00
             xred      3.3333333333E-01  6.6666666667E-01  9.9928700000E-01
                       6.6666666667E-01  3.3333333333E-01  4.9928700000E-01
                       3.3333333333E-01  6.6666666667E-01  3.8071300000E-01
                       6.6666666667E-01  3.3333333333E-01  8.8071300000E-01
            znucl       13.00000    7.00000

================================================================================

 chkinp: Checking input parameters for consistency, jdtset=   1.

 chkinp: Checking input parameters for consistency, jdtset=   2.

 chkinp: Checking input parameters for consistency, jdtset=   3.

 chkinp: Checking input parameters for consistency, jdtset=   4.

 chkinp: Checking input parameters for consistency, jdtset=   5.

================================================================================
== DATASET  1 ==================================================================
-   mpi_nproc: 98, omp_nthreads: 1 (-1 if OMP is not activated)
-    --> not optimal distribution: autoparal keyword recommended in input file <--


--- !DatasetInfo
iteration_state: {dtset: 1, }
dimensions: {natom: 4, nkpt: 76, mband: 8, nsppol: 1, nspinor: 1, nspden: 1, mpw: 2629, }
cutoff_energies: {ecut:  30.0, pawecutdg:  30.0, }
electrons: {nelect:   1.60000000E+01, charge:   0.00000000E+00, occopt:   1.00000000E+00, tsmear:   1.00000000E-02, }
meta: {optdriver: 0, ionmov: 0, optcell: 0, iscf: 7, paral_kgb: 0, }
...

 Real(R)+Recip(G) space primitive vectors, cartesian coordinates (Bohr,Bohr^-1):
 R(1)=  5.9121747  0.0000000  0.0000000  G(1)=  0.1691425  0.0976545  0.0000000
 R(2)= -2.9560874  5.1200935  0.0000000  G(2)=  0.0000000  0.1953089  0.0000000
 R(3)=  0.0000000  0.0000000  9.4806709  G(3)=  0.0000000  0.0000000  0.1054778
 Unit cell volume ucvol=  2.8698832E+02 bohr^3
 Angles (23,13,12)=  9.00000000E+01  9.00000000E+01  1.20000000E+02 degrees

 getcut: wavevector=  0.0000  0.0000  0.0000  ngfft=  32  32  50
         ecut(hartree)=     33.075   => boxcut(ratio)=   2.03712

--- Pseudopotential description ------------------------------------------------
- pspini: atom type   1  psp file is /work/10335/mias0356/ls6/work/modules/abinit-10.4.5/tests//Pspdir/Psdj_nc_sr_04_pw_std_psp8/Al.psp8
- pspatm: opening atomic psp file    /work/10335/mias0356/ls6/work/modules/abinit-10.4.5/tests//Pspdir/Psdj_nc_sr_04_pw_std_psp8/Al.psp8
- Al    ONCVPSP-3.3.0  r_core=   1.76802   1.76802   1.70587
- 13.00000   3.00000    171102                znucl, zion, pspdat
    8   -1012    2    4       600   0.00000   pspcod,pspxc,lmax,lloc,mmax,r2well
    5.99000000000000    5.00000000000000    0.00000000000000   rchrg,fchrg,qchrg
     nproj     2     2     2
     extension_switch     1
  pspatm : epsatm=    0.57439192
         --- l  ekb(1:nproj) -->
             0    5.725870    0.726131
             1    6.190420    0.914022
             2   -4.229503   -0.925599
 pspatm: atomic psp has been read  and splines computed

- pspini: atom type   2  psp file is /work/10335/mias0356/ls6/work/modules/abinit-10.4.5/tests//Pspdir/Psdj_nc_sr_04_pw_std_psp8/N.psp8
- pspatm: opening atomic psp file    /work/10335/mias0356/ls6/work/modules/abinit-10.4.5/tests//Pspdir/Psdj_nc_sr_04_pw_std_psp8/N.psp8
- N     ONCVPSP-3.3.0  r_core=   1.20551   1.35824
-  7.00000   5.00000    171101                znucl, zion, pspdat
    8   -1012    1    4       600   0.00000   pspcod,pspxc,lmax,lloc,mmax,r2well
    5.99000000000000    4.00000000000000    0.00000000000000   rchrg,fchrg,qchrg
     nproj     2     2
     extension_switch     1
  pspatm : epsatm=    5.30777697
         --- l  ekb(1:nproj) -->
             0    7.408032    0.617798
             1   -4.361519   -1.032581
 pspatm: atomic psp has been read  and splines computed

   1.88229405E+02                                ecore*ucvol(ha*bohr**3)
--------------------------------------------------------------------------------

_setup2: Arith. and geom. avg. npw (full set) are    2607.230    2607.218

================================================================================

--- !BeginCycle
iteration_state: {dtset: 1, }
solver: {iscf: 7, nstep: 200, nline: 4, wfoptalg: 0, }
tolerances: {toldfe: 1.00E-12, }
...

     iter   Etot(hartree)      deltaE(h)  residm     vres2
 ETOT  1  -25.380592905962    -2.538E+01 2.024E-01 7.121E+02
 ETOT  2  -25.492763225097    -1.122E-01 3.902E-04 4.756E+02
 ETOT  3  -25.679097228510    -1.863E-01 1.895E-03 3.972E+00
 ETOT  4  -25.680316130305    -1.219E-03 1.426E-05 4.483E-02
 ETOT  5  -25.680330656728    -1.453E-05 6.185E-07 6.469E-04
 ETOT  6  -25.680330807744    -1.510E-07 2.711E-08 5.363E-06
 ETOT  7  -25.680330809801    -2.057E-09 1.949E-09 4.305E-07
 ETOT  8  -25.680330809931    -1.301E-10 9.119E-11 3.451E-09
 ETOT  9  -25.680330809932    -9.734E-13 4.502E-12 1.719E-10
 ETOT 10  -25.680330809932    -2.878E-13 2.527E-13 4.741E-13

 At SCF step   10, etot is converged : 
  for the second time, diff in etot=  2.878E-13 < toldfe=  1.000E-12

 Cartesian components of stress tensor (hartree/bohr^3)
  sigma(1 1)=  4.35181865E-04  sigma(3 2)=  0.00000000E+00
  sigma(2 2)=  4.35181865E-04  sigma(3 1)=  0.00000000E+00
  sigma(3 3)=  4.28285643E-04  sigma(2 1)=  0.00000000E+00


--- !ResultsGS
iteration_state: {dtset: 1, }
comment   : Summary of ground state results
lattice_vectors:
- [  5.9121747,   0.0000000,   0.0000000, ]
- [ -2.9560874,   5.1200935,   0.0000000, ]
- [  0.0000000,   0.0000000,   9.4806709, ]
lattice_lengths: [   5.91217,    5.91217,    9.48067, ]
lattice_angles: [ 90.000,  90.000, 120.000, ] # degrees, (23, 13, 12)
lattice_volume:   2.8698832E+02
convergence: {deltae: -2.878E-13, res2:  4.741E-13, residm:  2.527E-13, diffor: null, }
etotal    :  -2.56803308E+01
entropy   :   0.00000000E+00
fermie    :   1.99173172E-01
cartesian_stress_tensor: # hartree/bohr^3
- [  4.35181865E-04,   0.00000000E+00,   0.00000000E+00, ]
- [  0.00000000E+00,   4.35181865E-04,   0.00000000E+00, ]
- [  0.00000000E+00,   0.00000000E+00,   4.28285643E-04, ]
pressure_GPa:  -1.2736E+01
xred      :
- [  3.3333E-01,   6.6667E-01,   9.9929E-01, Al]
- [  6.6667E-01,   3.3333E-01,   4.9929E-01, Al]
- [  3.3333E-01,   6.6667E-01,   3.8071E-01,  N]
- [  6.6667E-01,   3.3333E-01,   8.8071E-01,  N]
cartesian_forces: # hartree/bohr
- [ -9.10881475E-29,  -5.25897665E-29,   9.22778111E-05, ]
- [  9.10881475E-29,   5.25897665E-29,   9.22778111E-05, ]
- [ -1.82176295E-28,  -1.05179533E-28,  -9.22778111E-05, ]
- [  1.82176295E-28,   1.05179533E-28,  -9.22778111E-05, ]
force_length_stats: {min:   9.22778111E-05, max:   9.22778111E-05, mean:   9.22778111E-05, }
...

 Integrated electronic density in atomic spheres:
 ------------------------------------------------
 Atom  Sphere_radius  Integrated_density
    1        2.00000          1.09678233
    2        2.00000          1.09678233
    3        2.00000          5.33155009
    4        2.00000          5.33155009
================================================================================

 ----iterations are completed or convergence reached----

 Mean square residual over all n,k,spin=   87.546E-17; max=  25.267E-14
 reduced coordinates (array xred) for    4 atoms
       0.333333333333      0.666666666667      0.999287000000
       0.666666666667      0.333333333333      0.499287000000
       0.333333333333      0.666666666667      0.380713000000
       0.666666666667      0.333333333333      0.880713000000
 rms dE/dt=  5.0510E-04; max dE/dt=  8.7478E-04; dE/dt below (all hartree)
    1       0.000000000000      0.000000000000     -0.000874930744
    2      -0.000000000000      0.000000000000     -0.000874930744
    3       0.000000000000      0.000000000000      0.000874780379
    4      -0.000000000000      0.000000000000      0.000874780379

 cartesian coordinates (angstrom) at end:
    1     -0.00000000000000     1.80629119690888     5.01337788918671
    2      1.56429406317518     0.90314559845444     2.50490040014367
    3     -0.00000000000000     1.80629119690888     1.91001998057209
    4      1.56429406317518     0.90314559845444     4.41849746961513

 cartesian forces (hartree/bohr) at end:
    1     -0.00000000000000    -0.00000000000000     0.00009227781114
    2      0.00000000000000     0.00000000000000     0.00009227781114
    3     -0.00000000000000    -0.00000000000000    -0.00009227781114
    4      0.00000000000000     0.00000000000000    -0.00009227781114
 frms,max,avg= 5.3276619E-05 9.2277811E-05   0.000E+00  0.000E+00  7.930E-09 h/b

 cartesian forces (eV/Angstrom) at end:
    1     -0.00000000000000    -0.00000000000000     0.00474511543545
    2      0.00000000000000     0.00000000000000     0.00474511543545
    3     -0.00000000000000    -0.00000000000000    -0.00474511543545
    4      0.00000000000000     0.00000000000000    -0.00474511543545
 frms,max,avg= 2.7395937E-03 4.7451154E-03   0.000E+00  0.000E+00  4.078E-07 e/A
 length scales=  1.000000000000  1.000000000000  1.000000000000 bohr
              =  0.529177208590  0.529177208590  0.529177208590 angstroms
 Fermi (or HOMO) energy (hartree) =   0.19917   Average Vxc (hartree)=  -0.40050
 Eigenvalues (hartree) for nkpt=  76  k points:
 kpt#   1, nband=  8, wtk=  0.00198, kpt=  0.0000  0.0000  0.0714 (reduced coord)
  -0.34441   -0.26739   -0.01378    0.17181    0.17181    0.19512    0.19512    0.19826
 prteigrs : prtvol=0 or 1, do not print more k-points.


--- !EnergyTerms
iteration_state     : {dtset: 1, }
comment             : Components of total free energy in Hartree
kinetic             :  1.62950014032644E+01
hartree             :  5.64383780094484E+00
xc                  : -8.46703520808730E+00
Ewald energy        : -2.16195429852497E+01
psp_core            :  6.55878267219090E-01
local_psp           : -1.67809244682991E+01
non_local_psp       : -1.40754561972439E+00
total_energy        : -2.56803308099322E+01
total_energy_eV     : -6.98797339320849E+02
band_energy         :  2.05196380351216E-01
...


 Cartesian components of stress tensor (hartree/bohr^3)
  sigma(1 1)=  4.35181865E-04  sigma(3 2)=  0.00000000E+00
  sigma(2 2)=  4.35181865E-04  sigma(3 1)=  0.00000000E+00
  sigma(3 3)=  4.28285643E-04  sigma(2 1)=  0.00000000E+00

-Cartesian components of stress tensor (GPa)         [Pressure= -1.2736E+01 GPa]
- sigma(1 1)=  1.28034904E+01  sigma(3 2)=  0.00000000E+00
- sigma(2 2)=  1.28034904E+01  sigma(3 1)=  0.00000000E+00
- sigma(3 3)=  1.26005965E+01  sigma(2 1)=  0.00000000E+00

================================================================================
== DATASET  2 ==================================================================
-   mpi_nproc: 98, omp_nthreads: 1 (-1 if OMP is not activated)
-    --> not optimal distribution: autoparal keyword recommended in input file <--


--- !DatasetInfo
iteration_state: {dtset: 2, }
dimensions: {natom: 4, nkpt: 506, mband: 8, nsppol: 1, nspinor: 1, nspden: 1, mpw: 2629, }
cutoff_energies: {ecut:  30.0, pawecutdg:  30.0, }
electrons: {nelect:   1.60000000E+01, charge:   0.00000000E+00, occopt:   1.00000000E+00, tsmear:   1.00000000E-02, }
meta: {optdriver: 0, ionmov: 0, optcell: 0, iscf: -2, paral_kgb: 0, }
...

 mkfilename : getwfk/=0, take file _WFK from output of DATASET   1.

 mkfilename : getden/=0, take file _DEN from output of DATASET   1.

 Real(R)+Recip(G) space primitive vectors, cartesian coordinates (Bohr,Bohr^-1):
 R(1)=  5.9121747  0.0000000  0.0000000  G(1)=  0.1691425  0.0976545  0.0000000
 R(2)= -2.9560874  5.1200935  0.0000000  G(2)=  0.0000000  0.1953089  0.0000000
 R(3)=  0.0000000  0.0000000  9.4806709  G(3)=  0.0000000  0.0000000  0.1054778
 Unit cell volume ucvol=  2.8698832E+02 bohr^3
 Angles (23,13,12)=  9.00000000E+01  9.00000000E+01  1.20000000E+02 degrees

 getcut: wavevector=  0.0000  0.0000  0.0000  ngfft=  32  32  50
         ecut(hartree)=     33.075   => boxcut(ratio)=   2.03712
--------------------------------------------------------------------------------

-inwffil : will read wavefunctions from disk file tnlo_2o_DS1_WFK

================================================================================
 Non-SCF case, kpt    1 (  0.00000  0.00000  0.07143), residuals and eigenvalues=
  8.19E-23  9.01E-23  9.80E-23  8.59E-23  7.47E-23  6.02E-23  6.79E-23  6.60E-23
 -3.4441E-01 -2.6739E-01 -1.3777E-02  1.7181E-01  1.7181E-01  1.9512E-01
  1.9512E-01  1.9826E-01
 prteigrs : prtvol=0 or 1, do not print more k-points.



--- !ResultsGS
iteration_state: {dtset: 2, }
comment   : Summary of ground state results
lattice_vectors:
- [  5.9121747,   0.0000000,   0.0000000, ]
- [ -2.9560874,   5.1200935,   0.0000000, ]
- [  0.0000000,   0.0000000,   9.4806709, ]
lattice_lengths: [   5.91217,    5.91217,    9.48067, ]
lattice_angles: [ 90.000,  90.000, 120.000, ] # degrees, (23, 13, 12)
lattice_volume:   2.8698832E+02
convergence: {deltae:  0.000E+00, res2:  0.000E+00, residm:  9.996E-23, diffor:  0.000E+00, }
etotal    :  -2.56803308E+01
entropy   :   0.00000000E+00
fermie    :   1.99173172E-01
cartesian_stress_tensor: null
pressure_GPa: null
xred      :
- [  3.3333E-01,   6.6667E-01,   9.9929E-01, Al]
- [  6.6667E-01,   3.3333E-01,   4.9929E-01, Al]
- [  3.3333E-01,   6.6667E-01,   3.8071E-01,  N]
- [  6.6667E-01,   3.3333E-01,   8.8071E-01,  N]
cartesian_forces: null
force_length_stats: {min: null, max: null, mean: null, }
...

 Integrated electronic density in atomic spheres:
 ------------------------------------------------
 Atom  Sphere_radius  Integrated_density
    1        2.00000          1.09678233
    2        2.00000          1.09678233
    3        2.00000          5.33155009
    4        2.00000          5.33155009
================================================================================

 ----iterations are completed or convergence reached----

 Mean square residual over all n,k,spin=   57.899E-24; max=  99.959E-24
 reduced coordinates (array xred) for    4 atoms
       0.333333333333      0.666666666667      0.999287000000
       0.666666666667      0.333333333333      0.499287000000
       0.333333333333      0.666666666667      0.380713000000
       0.666666666667      0.333333333333      0.880713000000

 cartesian coordinates (angstrom) at end:
    1     -0.00000000000000     1.80629119690888     5.01337788918671
    2      1.56429406317518     0.90314559845444     2.50490040014367
    3     -0.00000000000000     1.80629119690888     1.91001998057209
    4      1.56429406317518     0.90314559845444     4.41849746961513
 length scales=  1.000000000000  1.000000000000  1.000000000000 bohr
              =  0.529177208590  0.529177208590  0.529177208590 angstroms
 Eigenvalues (hartree) for nkpt= 506  k points:
 kpt#   1, nband=  8, wtk=  0.00198, kpt=  0.0000  0.0000  0.0714 (reduced coord)
  -0.34441   -0.26739   -0.01378    0.17181    0.17181    0.19512    0.19512    0.19826
 prteigrs : prtvol=0 or 1, do not print more k-points.


================================================================================
== DATASET  3 ==================================================================
-   mpi_nproc: 98, omp_nthreads: 1 (-1 if OMP is not activated)


--- !DatasetInfo
iteration_state: {dtset: 3, }
dimensions: {natom: 4, nkpt: 506, mband: 8, nsppol: 1, nspinor: 1, nspden: 1, mpw: 2629, }
cutoff_energies: {ecut:  30.0, pawecutdg:  30.0, }
electrons: {nelect:   1.60000000E+01, charge:   0.00000000E+00, occopt:   1.00000000E+00, tsmear:   1.00000000E-02, }
meta: {optdriver: 1, rfelfd: 2, }
...

 mkfilename : getwfk/=0, take file _WFK from output of DATASET   2.

 Real(R)+Recip(G) space primitive vectors, cartesian coordinates (Bohr,Bohr^-1):
 R(1)=  5.9121747  0.0000000  0.0000000  G(1)=  0.1691425  0.0976545  0.0000000
 R(2)= -2.9560874  5.1200935  0.0000000  G(2)=  0.0000000  0.1953089  0.0000000
 R(3)=  0.0000000  0.0000000  9.4806709  G(3)=  0.0000000  0.0000000  0.1054778
 Unit cell volume ucvol=  2.8698832E+02 bohr^3
 Angles (23,13,12)=  9.00000000E+01  9.00000000E+01  1.20000000E+02 degrees

 getcut: wavevector=  0.0000  0.0000  0.0000  ngfft=  32  32  50
         ecut(hartree)=     33.075   => boxcut(ratio)=   2.03712
--------------------------------------------------------------------------------


 ==>  initialize data related to q vector <== 

 The list of irreducible perturbations for this q vector is:
    1)    idir= 1    ipert=   5
    2)    idir= 2    ipert=   5
    3)    idir= 3    ipert=   5

================================================================================

--------------------------------------------------------------------------------
 Perturbation wavevector (in red.coord.)   0.000000  0.000000  0.000000
 Perturbation : derivative vs k along direction   1

 dfpt_looppert : COMMENT -
  In a d/dk calculation, iscf is set to -3 automatically.
 The set of symmetries contains only one element for this perturbation.
 symkpt : not enough symmetry to change the number of k points.

--------------------------------------------------------------------------------

--------------------------------------------------------------------------------

 Initialisation of the first-order wave-functions :
  ireadwf=   0

--- !BeginCycle
iteration_state: {dtset: 3, }
solver: {iscf: 7, nstep: 200, nline: 4, wfoptalg: 0, }
tolerances: {tolwfr: 1.00E-22, }
...

     iter   2DEtotal(Ha)        deltaE(Ha) residm    vres2
-ETOT  1  -24.215913957600     -2.422E+01 4.278E-01 0.000E+00
 ETOT  2  -24.336714603550     -1.208E-01 2.482E-02 0.000E+00
 ETOT  3  -24.338584585221     -1.870E-03 5.684E-04 0.000E+00
 ETOT  4  -24.338627228169     -4.264E-05 3.927E-05 0.000E+00
 ETOT  5  -24.338628435873     -1.208E-06 1.114E-06 0.000E+00
 ETOT  6  -24.338628475414     -3.954E-08 7.915E-08 0.000E+00
 ETOT  7  -24.338628476845     -1.430E-09 2.369E-09 0.000E+00
 ETOT  8  -24.338628476900     -5.551E-11 1.675E-10 0.000E+00
 ETOT  9  -24.338628476902     -2.245E-12 5.101E-12 0.000E+00
 ETOT 10  -24.338628476902     -8.882E-14 3.591E-13 0.000E+00
 ETOT 11  -24.338628476902     -7.105E-15 1.105E-14 0.000E+00
 ETOT 12  -24.338628476902      3.553E-15 7.743E-16 0.000E+00
 ETOT 13  -24.338628476902     -1.421E-14 2.408E-17 0.000E+00
 ETOT 14  -24.338628476902      3.553E-15 1.675E-18 0.000E+00
 ETOT 15  -24.338628476902      0.000E+00 5.268E-20 0.000E+00
 ETOT 16  -24.338628476902      1.421E-14 3.634E-21 0.000E+00
 ETOT 17  -24.338628476902     -7.105E-15 1.156E-22 0.000E+00
 ETOT 18  -24.338628476902     -7.105E-15 9.993E-23 0.000E+00

 At SCF step   18   max residual=  9.99E-23 < tolwfr=  1.00E-22 =>converged.
================================================================================

 ----iterations are completed or convergence reached----

 Mean square residual over all n,k,spin=   53.721E-24; max=  99.933E-24
 dfpt_looppert : ek2=    4.8189667339E+01
          f-sum rule ratio=    1.0000095400E+00
 Expectation of eigenvalue derivatives (hartree) for nkpt= 506  k points:
  (in case of degenerate eigenvalues, averaged derivative)
 kpt#   1, nband=  8, wtk=  0.00198, kpt=  0.0000  0.0000  0.0714 (reduced coord)
   0.00000   -0.00000   -0.00000   -0.00000   -0.00000   -0.00000   -0.00000   -0.00000
 prteigrs : prtvol=0 or 1, do not print more k-points.


 Eight components of 2nd-order total energy (hartree) are
 1,2,3: 0th-order hamiltonian combined with 1st-order wavefunctions
     kin0=   5.38189414E+01 eigvalue=  -6.32881253E+00  local=  -2.71118587E+01
 4,5,6: 1st-order hamiltonian combined with 1st and 0th-order wfs
     kin1=  -4.81901271E+01  Hartree=   0.00000000E+00     xc=   0.00000000E+00
 7,8,9: eventually, occupation + non-local contributions
    edocc=   0.00000000E+00     enl0=   3.96035836E+00   enl1=  -4.87129886E-01
 1-9 gives the relaxation energy (to be shifted if some occ is /=2.0)
   erelax=  -2.43386285E+01
  No Ewald or frozen-wf contrib.: the relaxation energy is the total one
 2DEtotal=   -0.2433862848E+02 Ha. Also 2DEtotal=   -0.662287762111E+03 eV
    (  non-var. 2DEtotal :   -2.4338628477E+01 Ha)

--------------------------------------------------------------------------------
 Perturbation wavevector (in red.coord.)   0.000000  0.000000  0.000000
 Perturbation : derivative vs k along direction   2
 The set of symmetries contains only one element for this perturbation.
 symkpt : not enough symmetry to change the number of k points.

--------------------------------------------------------------------------------

--------------------------------------------------------------------------------

 Initialisation of the first-order wave-functions :
  ireadwf=   0

--- !BeginCycle
iteration_state: {dtset: 3, }
solver: {iscf: 7, nstep: 200, nline: 4, wfoptalg: 0, }
tolerances: {tolwfr: 1.00E-22, }
...

     iter   2DEtotal(Ha)        deltaE(Ha) residm    vres2
-ETOT  1  -24.216678058645     -2.422E+01 5.827E-01 0.000E+00
 ETOT  2  -24.336734913800     -1.201E-01 2.714E-02 0.000E+00
 ETOT  3  -24.338585269393     -1.850E-03 7.046E-04 0.000E+00
 ETOT  4  -24.338627256011     -4.199E-05 3.990E-05 0.000E+00
 ETOT  5  -24.338628437339     -1.181E-06 1.286E-06 0.000E+00
 ETOT  6  -24.338628475718     -3.838E-08 7.475E-08 0.000E+00
 ETOT  7  -24.338628477094     -1.376E-09 2.563E-09 0.000E+00
 ETOT  8  -24.338628477147     -5.291E-11 1.479E-10 0.000E+00
 ETOT  9  -24.338628477149     -2.132E-12 5.176E-12 0.000E+00
 ETOT 10  -24.338628477149     -8.882E-14 2.966E-13 0.000E+00
 ETOT 11  -24.338628477149     -1.421E-14 1.053E-14 0.000E+00
 ETOT 12  -24.338628477149      7.105E-15 6.202E-16 0.000E+00
 ETOT 13  -24.338628477149     -7.105E-15 2.154E-17 0.000E+00
 ETOT 14  -24.338628477149     -3.553E-15 1.320E-18 0.000E+00
 ETOT 15  -24.338628477149      1.066E-14 4.428E-20 0.000E+00
 ETOT 16  -24.338628477149     -1.421E-14 2.821E-21 0.000E+00
 ETOT 17  -24.338628477149      2.132E-14 9.993E-23 0.000E+00

 At SCF step   17   max residual=  9.99E-23 < tolwfr=  1.00E-22 =>converged.
================================================================================

 ----iterations are completed or convergence reached----

 Mean square residual over all n,k,spin=   53.448E-24; max=  99.933E-24
 dfpt_looppert : ek2=    4.8189667340E+01
          f-sum rule ratio=    1.0000095400E+00
 Expectation of eigenvalue derivatives (hartree) for nkpt= 506  k points:
  (in case of degenerate eigenvalues, averaged derivative)
 kpt#   1, nband=  8, wtk=  0.00198, kpt=  0.0000  0.0000  0.0714 (reduced coord)
   0.00000   -0.00000   -0.00000   -0.00000   -0.00000   -0.00000   -0.00000   -0.00000
 prteigrs : prtvol=0 or 1, do not print more k-points.


 Eight components of 2nd-order total energy (hartree) are
 1,2,3: 0th-order hamiltonian combined with 1st-order wavefunctions
     kin0=   5.38189414E+01 eigvalue=  -6.32881253E+00  local=  -2.71118587E+01
 4,5,6: 1st-order hamiltonian combined with 1st and 0th-order wfs
     kin1=  -4.81901271E+01  Hartree=   0.00000000E+00     xc=   0.00000000E+00
 7,8,9: eventually, occupation + non-local contributions
    edocc=   0.00000000E+00     enl0=   3.96035836E+00   enl1=  -4.87129886E-01
 1-9 gives the relaxation energy (to be shifted if some occ is /=2.0)
   erelax=  -2.43386285E+01
  No Ewald or frozen-wf contrib.: the relaxation energy is the total one
 2DEtotal=   -0.2433862848E+02 Ha. Also 2DEtotal=   -0.662287762118E+03 eV
    (  non-var. 2DEtotal :   -2.4338628477E+01 Ha)

--------------------------------------------------------------------------------
 Perturbation wavevector (in red.coord.)   0.000000  0.000000  0.000000
 Perturbation : derivative vs k along direction   3
 The set of symmetries contains only one element for this perturbation.
 symkpt : not enough symmetry to change the number of k points.

--------------------------------------------------------------------------------

--------------------------------------------------------------------------------

 Initialisation of the first-order wave-functions :
  ireadwf=   0

--- !BeginCycle
iteration_state: {dtset: 3, }
solver: {iscf: 7, nstep: 200, nline: 4, wfoptalg: 0, }
tolerances: {tolwfr: 1.00E-22, }
...

     iter   2DEtotal(Ha)        deltaE(Ha) residm    vres2
-ETOT  1  -7.0582267690406     -7.058E+00 1.603E-01 0.000E+00
 ETOT  2  -7.0952202912547     -3.699E-02 9.319E-03 0.000E+00
 ETOT  3  -7.0958238399713     -6.035E-04 2.058E-04 0.000E+00
 ETOT  4  -7.0958388623370     -1.502E-05 1.432E-05 0.000E+00
 ETOT  5  -7.0958393371902     -4.749E-07 4.177E-07 0.000E+00
 ETOT  6  -7.0958393545806     -1.739E-08 3.085E-08 0.000E+00
 ETOT  7  -7.0958393552794     -6.988E-10 9.619E-10 0.000E+00
 ETOT  8  -7.0958393553094     -2.994E-11 7.071E-11 0.000E+00
 ETOT  9  -7.0958393553107     -1.330E-12 2.240E-12 0.000E+00
 ETOT 10  -7.0958393553108     -5.329E-14 1.653E-13 0.000E+00
 ETOT 11  -7.0958393553108     -1.243E-14 5.358E-15 0.000E+00
 ETOT 12  -7.0958393553108      5.329E-15 3.944E-16 0.000E+00
 ETOT 13  -7.0958393553108     -1.776E-15 1.302E-17 0.000E+00
 ETOT 14  -7.0958393553108     -5.329E-15 9.455E-19 0.000E+00
 ETOT 15  -7.0958393553108      3.553E-15 3.178E-20 0.000E+00
 ETOT 16  -7.0958393553108     -8.882E-16 2.276E-21 0.000E+00
 ETOT 17  -7.0958393553108      8.882E-16 9.977E-23 0.000E+00

 At SCF step   17   max residual=  9.98E-23 < tolwfr=  1.00E-22 =>converged.
================================================================================

 ----iterations are completed or convergence reached----

 Mean square residual over all n,k,spin=   54.520E-24; max=  99.768E-24
 dfpt_looppert : ek2=    1.4055023295E+01
          f-sum rule ratio=    1.0000319439E+00
 Expectation of eigenvalue derivatives (hartree) for nkpt= 506  k points:
  (in case of degenerate eigenvalues, averaged derivative)
 kpt#   1, nband=  8, wtk=  0.00198, kpt=  0.0000  0.0000  0.0714 (reduced coord)
   0.02012   -0.04158    0.07237    0.00788    0.00788   -0.00883   -0.00883   -0.12178
 prteigrs : prtvol=0 or 1, do not print more k-points.


 Eight components of 2nd-order total energy (hartree) are
 1,2,3: 0th-order hamiltonian combined with 1st-order wavefunctions
     kin0=   1.60988876E+01 eigvalue=  -1.94958701E+00  local=  -8.09115279E+00
 4,5,6: 1st-order hamiltonian combined with 1st and 0th-order wfs
     kin1=  -1.40554723E+01  Hartree=   0.00000000E+00     xc=   0.00000000E+00
 7,8,9: eventually, occupation + non-local contributions
    edocc=   0.00000000E+00     enl0=   1.03769160E+00   enl1=  -1.36206443E-01
 1-9 gives the relaxation energy (to be shifted if some occ is /=2.0)
   erelax=  -7.09583936E+00
  No Ewald or frozen-wf contrib.: the relaxation energy is the total one
 2DEtotal=   -0.7095839355E+01 Ha. Also 2DEtotal=   -0.193087608506E+03 eV
    (  non-var. 2DEtotal :   -7.0958393553E+00 Ha)
================================================================================

 ---- first-order wavefunction calculations are completed ----


 Total localisation tensor (bohr^2) in cartesian coordinates
  WARNING : still subject to testing - especially symmetries.
      direction              matrix element
   alpha     beta       real part   imaginary part
     1        1       1.6221608729   -0.0000000000
     1        2      -0.5619330100    0.0000000000
     1        3       0.0000000000    0.0000000000
     2        1      -0.5619330100    0.0000000000
     2        2       0.9732965237   -0.0000000000
     2        3       0.0000000000    0.0000000000
     3        1       0.0000000000    0.0000000000
     3        2       0.0000000000    0.0000000000
     3        3       0.9925464892    0.0000000000

 respfn : d/dk was computed, but no 2DTE, so no DDB output.

================================================================================
== DATASET  4 ==================================================================
-   mpi_nproc: 98, omp_nthreads: 1 (-1 if OMP is not activated)


--- !DatasetInfo
iteration_state: {dtset: 4, }
dimensions: {natom: 4, nkpt: 506, mband: 8, nsppol: 1, nspinor: 1, nspden: 1, mpw: 2629, }
cutoff_energies: {ecut:  30.0, pawecutdg:  30.0, }
electrons: {nelect:   1.60000000E+01, charge:   0.00000000E+00, occopt:   1.00000000E+00, tsmear:   1.00000000E-02, }
meta: {optdriver: 1, rfelfd: 3, rfphon: 1, rfstrs: 3, }
...

 mkfilename : getwfk/=0, take file _WFK from output of DATASET   2.

 mkfilename : getddk/=0, take file _1WF from output of DATASET   3.

 Real(R)+Recip(G) space primitive vectors, cartesian coordinates (Bohr,Bohr^-1):
 R(1)=  5.9121747  0.0000000  0.0000000  G(1)=  0.1691425  0.0976545  0.0000000
 R(2)= -2.9560874  5.1200935  0.0000000  G(2)=  0.0000000  0.1953089  0.0000000
 R(3)=  0.0000000  0.0000000  9.4806709  G(3)=  0.0000000  0.0000000  0.1054778
 Unit cell volume ucvol=  2.8698832E+02 bohr^3
 Angles (23,13,12)=  9.00000000E+01  9.00000000E+01  1.20000000E+02 degrees

 getcut: wavevector=  0.0000  0.0000  0.0000  ngfft=  32  32  50
         ecut(hartree)=     33.075   => boxcut(ratio)=   2.03712
--------------------------------------------------------------------------------

 symkchk : k-point set has full space-group symmetry.

 ==>  initialize data related to q vector <== 

 The list of irreducible perturbations for this q vector is:
    1)    idir= 1    ipert=   1
    2)    idir= 3    ipert=   1
    3)    idir= 1    ipert=   3
    4)    idir= 3    ipert=   3
    5)    idir= 1    ipert=   6
    6)    idir= 3    ipert=   6
    7)    idir= 1    ipert=   7
    8)    idir= 2    ipert=   7
    9)    idir= 3    ipert=   7
   10)    idir= 1    ipert=   8
   11)    idir= 2    ipert=   8
   12)    idir= 3    ipert=   8

================================================================================

 The perturbation idir=   2  ipert=   1 is
 symmetric of a previously calculated perturbation.
 So, its SCF calculation is not needed.


 The perturbation idir=   1  ipert=   2 is
 symmetric of a previously calculated perturbation.
 So, its SCF calculation is not needed.


 The perturbation idir=   2  ipert=   2 is
 symmetric of a previously calculated perturbation.
 So, its SCF calculation is not needed.


 The perturbation idir=   3  ipert=   2 is
 symmetric of a previously calculated perturbation.
 So, its SCF calculation is not needed.


 The perturbation idir=   2  ipert=   3 is
 symmetric of a previously calculated perturbation.
 So, its SCF calculation is not needed.


 The perturbation idir=   1  ipert=   4 is
 symmetric of a previously calculated perturbation.
 So, its SCF calculation is not needed.


 The perturbation idir=   2  ipert=   4 is
 symmetric of a previously calculated perturbation.
 So, its SCF calculation is not needed.


 The perturbation idir=   3  ipert=   4 is
 symmetric of a previously calculated perturbation.
 So, its SCF calculation is not needed.


--------------------------------------------------------------------------------
 Perturbation wavevector (in red.coord.)   0.000000  0.000000  0.000000
 Perturbation : displacement of atom   1   along direction   1
 symkpt : not enough symmetry to change the number of k points.

--------------------------------------------------------------------------------

--------------------------------------------------------------------------------

 Initialisation of the first-order wave-functions :
  ireadwf=   0

--- !BeginCycle
iteration_state: {dtset: 4, }
solver: {iscf: 7, nstep: 200, nline: 4, wfoptalg: 0, }
tolerances: {tolvrs: 1.00E-12, }
...

     iter   2DEtotal(Ha)        deltaE(Ha) residm    vres2
-ETOT  1   5.3131600512633     -1.918E+01 1.479E-01 2.793E+02
 ETOT  2   5.1792129725384     -1.339E-01 1.588E-03 5.131E+00
 ETOT  3   5.1753325881503     -3.880E-03 2.238E-04 2.672E-01
 ETOT  4   5.1752082764729     -1.243E-04 1.076E-06 1.541E-03
 ETOT  5   5.1752073717278     -9.047E-07 8.398E-08 1.630E-05
 ETOT  6   5.1752073599208     -1.181E-08 2.411E-09 6.014E-06
 ETOT  7   5.1752073577445     -2.176E-09 1.086E-10 1.608E-06
 ETOT  8   5.1752073569736     -7.709E-10 1.001E-11 5.860E-09
 ETOT  9   5.1752073569711     -2.462E-12 2.571E-13 7.930E-10
 ETOT 10   5.1752073569706     -5.116E-13 1.191E-14 1.971E-10
 ETOT 11   5.1752073569706     -1.421E-14 7.349E-16 1.218E-11
 ETOT 12   5.1752073569706     -1.776E-14 4.533E-17 3.729E-13

 At SCF step   12       vres2   =  3.73E-13 < tolvrs=  1.00E-12 =>converged.
-open ddk wf file :tnlo_2o_DS3_1WF13
-open ddk wf file :tnlo_2o_DS3_1WF14
-open ddk wf file :tnlo_2o_DS3_1WF15
================================================================================

 ----iterations are completed or convergence reached----

 Mean square residual over all n,k,spin=   32.237E-19; max=  45.326E-18

 Thirteen components of 2nd-order total energy (hartree) are
 1,2,3: 0th-order hamiltonian combined with 1st-order wavefunctions
     kin0=   1.97099065E+01 eigvalue=  -6.42408248E-01  local=  -1.23103572E+01
 4,5,6: 1st-order hamiltonian combined with 1st and 0th-order wfs
 loc psp =   4.24571285E+00  Hartree=   1.36267280E+00     xc=  -6.35235538E-01
 note that "loc psp" includes a xc core correction that could be resolved
 7,8,9: eventually, occupation + non-local contributions
    edocc=   0.00000000E+00     enl0=   1.18381989E+01   enl1=  -4.28912672E+01
 1-9 gives the relaxation energy (to be shifted if some occ is /=2.0)
   erelax=  -1.93227772E+01
 10,11,12 Non-relaxation  contributions : frozen-wavefunctions and Ewald
 fr.local=  -2.19909421E+01 fr.nonlo=   3.13213950E+01  Ewald=   1.62593862E+01
 13,14 Frozen wf xc core corrections (1) and (2)
 frxc 1  =  -3.30889230E+00  frxc 2 =   2.21703775E+00
 Resulting in :
 2DEtotal=    0.5175207357E+01 Ha. Also 2DEtotal=    0.140824553946E+03 eV
    (2DErelax=   -1.9322777178E+01 Ha. 2DEnonrelax=    2.4497984535E+01 Ha)
    (  non-var. 2DEtotal :    5.1752073568E+00 Ha)


--------------------------------------------------------------------------------
 Perturbation wavevector (in red.coord.)   0.000000  0.000000  0.000000
 Perturbation : displacement of atom   1   along direction   3
 symkpt : not enough symmetry to change the number of k points.

--------------------------------------------------------------------------------

--------------------------------------------------------------------------------

 Initialisation of the first-order wave-functions :
  ireadwf=   0

--- !BeginCycle
iteration_state: {dtset: 4, }
solver: {iscf: 7, nstep: 200, nline: 4, wfoptalg: 0, }
tolerances: {tolvrs: 1.00E-12, }
...

     iter   2DEtotal(Ha)        deltaE(Ha) residm    vres2
-ETOT  1   19.608124780117     -6.935E+01 6.014E-01 5.026E+03
 ETOT  2   19.480030250886     -1.281E-01 4.832E-02 4.747E+03
 ETOT  3   18.309704730854     -1.170E+00 1.277E-02 2.072E+02
 ETOT  4   18.261447292042     -4.826E-02 5.102E-04 7.845E+01
 ETOT  5   18.246757157943     -1.469E-02 1.945E-04 1.372E+00
 ETOT  6   18.246493101987     -2.641E-04 4.709E-06 2.749E-02
 ETOT  7   18.246484496089     -8.606E-06 5.533E-08 5.560E-03
 ETOT  8   18.246482126410     -2.370E-06 9.819E-09 3.748E-05
 ETOT  9   18.246482118267     -8.143E-09 1.225E-10 3.020E-06
 ETOT 10   18.246482117578     -6.896E-10 1.146E-11 4.745E-08
 ETOT 11   18.246482117561     -1.685E-11 1.572E-13 3.509E-10
 ETOT 12   18.246482117561      1.990E-13 1.174E-14 2.009E-11
 ETOT 13   18.246482117561     -2.558E-13 3.627E-16 4.430E-13

 At SCF step   13       vres2   =  4.43E-13 < tolvrs=  1.00E-12 =>converged.
-open ddk wf file :tnlo_2o_DS3_1WF13
-open ddk wf file :tnlo_2o_DS3_1WF14
-open ddk wf file :tnlo_2o_DS3_1WF15
================================================================================

 ----iterations are completed or convergence reached----

 Mean square residual over all n,k,spin=   70.222E-19; max=  36.272E-17

 Thirteen components of 2nd-order total energy (hartree) are
 1,2,3: 0th-order hamiltonian combined with 1st-order wavefunctions
     kin0=   6.61086694E+01 eigvalue=  -3.15308386E+00  local=  -3.92799248E+01
 4,5,6: 1st-order hamiltonian combined with 1st and 0th-order wfs
 loc psp =  -3.35706397E+01  Hartree=   1.90122201E+01     xc=  -3.08835731E+00
 note that "loc psp" includes a xc core correction that could be resolved
 7,8,9: eventually, occupation + non-local contributions
    edocc=   0.00000000E+00     enl0=   3.11139993E+01   enl1=  -1.07856406E+02
 1-9 gives the relaxation energy (to be shifted if some occ is /=2.0)
   erelax=  -7.07135228E+01
 10,11,12 Non-relaxation  contributions : frozen-wavefunctions and Ewald
 fr.local=  -5.32355070E+01 fr.nonlo=   7.48427027E+01  Ewald=   6.98714709E+01
 13,14 Frozen wf xc core corrections (1) and (2)
 frxc 1  =  -8.57070497E+00  frxc 2 =   6.05204330E+00
 Resulting in :
 2DEtotal=    0.1824648212E+02 Ha. Also 2DEtotal=    0.496512028996E+03 eV
    (2DErelax=   -7.0713522795E+01 Ha. 2DEnonrelax=    8.8960004913E+01 Ha)
    (  non-var. 2DEtotal :    1.8246482136E+01 Ha)


--------------------------------------------------------------------------------
 Perturbation wavevector (in red.coord.)   0.000000  0.000000  0.000000
 Perturbation : displacement of atom   3   along direction   1
 symkpt : not enough symmetry to change the number of k points.

--------------------------------------------------------------------------------

--------------------------------------------------------------------------------

 Initialisation of the first-order wave-functions :
  ireadwf=   0

--- !BeginCycle
iteration_state: {dtset: 4, }
solver: {iscf: 7, nstep: 200, nline: 4, wfoptalg: 0, }
tolerances: {tolvrs: 1.00E-12, }
...

     iter   2DEtotal(Ha)        deltaE(Ha) residm    vres2
-ETOT  1   8.2078505043903     -1.252E+03 2.341E+00 3.820E+03
 ETOT  2   5.2498524448570     -2.958E+00 8.197E-02 6.373E+01
 ETOT  3   5.1937673550938     -5.609E-02 1.145E-03 5.057E+00
 ETOT  4   5.1915156998403     -2.252E-03 4.340E-05 5.992E-02
 ETOT  5   5.1914910131430     -2.469E-05 5.756E-07 4.587E-03
 ETOT  6   5.1914894797056     -1.533E-06 1.711E-08 6.778E-05
 ETOT  7   5.1914894576705     -2.204E-08 1.095E-09 1.779E-05
 ETOT  8   5.1914894493712     -8.299E-09 9.471E-11 1.509E-07
 ETOT  9   5.1914894492993     -7.185E-11 3.317E-12 5.724E-09
 ETOT 10   5.1914894493064      7.049E-12 1.354E-13 9.208E-10
 ETOT 11   5.1914894493037     -2.728E-12 8.720E-15 7.729E-11
 ETOT 12   5.1914894492966     -7.049E-12 5.150E-16 8.578E-12
 ETOT 13   5.1914894493043      7.731E-12 2.657E-17 1.376E-13

 At SCF step   13       vres2   =  1.38E-13 < tolvrs=  1.00E-12 =>converged.
-open ddk wf file :tnlo_2o_DS3_1WF13
-open ddk wf file :tnlo_2o_DS3_1WF14
-open ddk wf file :tnlo_2o_DS3_1WF15
================================================================================

 ----iterations are completed or convergence reached----

 Mean square residual over all n,k,spin=   17.252E-19; max=  26.570E-18

 Thirteen components of 2nd-order total energy (hartree) are
 1,2,3: 0th-order hamiltonian combined with 1st-order wavefunctions
     kin0=   1.32533296E+03 eigvalue=  -3.22490975E+01  local=  -5.05911155E+02
 4,5,6: 1st-order hamiltonian combined with 1st and 0th-order wfs
 loc psp =  -5.95457757E+02  Hartree=   1.56064560E+02     xc=  -3.98592496E+01
 note that "loc psp" includes a xc core correction that could be resolved
 7,8,9: eventually, occupation + non-local contributions
    edocc=   0.00000000E+00     enl0=   3.51335019E+02   enl1=  -1.91396832E+03
 1-9 gives the relaxation energy (to be shifted if some occ is /=2.0)
   erelax=  -1.25471304E+03
 10,11,12 Non-relaxation  contributions : frozen-wavefunctions and Ewald
 fr.local=   2.84806731E+02 fr.nonlo=   9.62462942E+02  Ewald=   1.74768872E+01
 13,14 Frozen wf xc core corrections (1) and (2)
 frxc 1  =  -3.35140360E+01  frxc 2 =   2.86720014E+01
 Resulting in :
 2DEtotal=    0.5191489449E+01 Ha. Also 2DEtotal=    0.141267612210E+03 eV
    (2DErelax=   -1.2547130362E+03 Ha. 2DEnonrelax=    1.2599045257E+03 Ha)
    (  non-var. 2DEtotal :    5.1914893963E+00 Ha)


--------------------------------------------------------------------------------
 Perturbation wavevector (in red.coord.)   0.000000  0.000000  0.000000
 Perturbation : displacement of atom   3   along direction   3
 symkpt : not enough symmetry to change the number of k points.

--------------------------------------------------------------------------------

--------------------------------------------------------------------------------

 Initialisation of the first-order wave-functions :
  ireadwf=   0

--- !BeginCycle
iteration_state: {dtset: 4, }
solver: {iscf: 7, nstep: 200, nline: 4, wfoptalg: 0, }
tolerances: {tolvrs: 1.00E-12, }
...

     iter   2DEtotal(Ha)        deltaE(Ha) residm    vres2
-ETOT  1   30.024490041240     -3.290E+03 2.905E+00 6.221E+04
 ETOT  2   17.066733736198     -1.296E+01 1.800E-01 8.253E+02
 ETOT  3   16.860673796255     -2.061E-01 4.009E-03 1.070E+02
 ETOT  4   16.844236939790     -1.644E-02 4.236E-04 1.718E+01
 ETOT  5   16.835150332911     -9.087E-03 9.044E-05 2.266E+00
 ETOT  6   16.834624496578     -5.258E-04 5.049E-06 8.770E-02
 ETOT  7   16.834615212783     -9.284E-06 8.133E-08 2.476E-02
 ETOT  8   16.834608414372     -6.798E-06 3.737E-08 1.365E-03
 ETOT  9   16.834608070419     -3.440E-07 1.143E-09 2.632E-05
 ETOT 10   16.834608063028     -7.391E-09 9.231E-11 2.980E-07
 ETOT 11   16.834608062888     -1.401E-10 6.054E-13 3.073E-08
 ETOT 12   16.834608062929      4.093E-11 3.772E-14 5.954E-10
 ETOT 13   16.834608062903     -2.638E-11 4.941E-15 1.688E-10
 ETOT 14   16.834608062881     -2.183E-11 4.036E-16 3.433E-13

 At SCF step   14       vres2   =  3.43E-13 < tolvrs=  1.00E-12 =>converged.
-open ddk wf file :tnlo_2o_DS3_1WF13
-open ddk wf file :tnlo_2o_DS3_1WF14
-open ddk wf file :tnlo_2o_DS3_1WF15
================================================================================

 ----iterations are completed or convergence reached----

 Mean square residual over all n,k,spin=   54.425E-18; max=  40.355E-17

 Thirteen components of 2nd-order total energy (hartree) are
 1,2,3: 0th-order hamiltonian combined with 1st-order wavefunctions
     kin0=   3.37041949E+03 eigvalue=  -7.78611719E+01  local=  -1.26497330E+03
 4,5,6: 1st-order hamiltonian combined with 1st and 0th-order wfs
 loc psp =  -1.71367499E+03  Hartree=   4.89885929E+02     xc=  -1.01325000E+02
 note that "loc psp" includes a xc core correction that could be resolved
 7,8,9: eventually, occupation + non-local contributions
    edocc=   0.00000000E+00     enl0=   8.86563881E+02   enl1=  -4.89174465E+03
 1-9 gives the relaxation energy (to be shifted if some occ is /=2.0)
   erelax=  -3.30270982E+03
 10,11,12 Non-relaxation  contributions : frozen-wavefunctions and Ewald
 fr.local=   7.30563151E+02 fr.nonlo=   2.47478208E+03  Ewald=   1.26581365E+02
 13,14 Frozen wf xc core corrections (1) and (2)
 frxc 1  =  -8.61907899E+01  frxc 2 =   7.38086173E+01
 Resulting in :
 2DEtotal=    0.1683460806E+02 Ha. Also 2DEtotal=    0.458092982132E+03 eV
    (2DErelax=   -3.3027098190E+03 Ha. 2DEnonrelax=    3.3195444270E+03 Ha)
    (  non-var. 2DEtotal :    1.6834608053E+01 Ha)


--------------------------------------------------------------------------------
 Perturbation wavevector (in red.coord.)   0.000000  0.000000  0.000000
 Perturbation : homogeneous electric field along direction   1
 symkpt : not enough symmetry to change the number of k points.

--------------------------------------------------------------------------------

--------------------------------------------------------------------------------

 Initialisation of the first-order wave-functions :
  ireadwf=   0
- dfpt_looppert: read the DDK wavefunctions from file: tnlo_2o_DS3_1WF13

--- !BeginCycle
iteration_state: {dtset: 4, }
solver: {iscf: 7, nstep: 200, nline: 4, wfoptalg: 0, }
tolerances: {tolvrs: 1.00E-12, }
...

     iter   2DEtotal(Ha)        deltaE(Ha) residm    vres2
-ETOT  1  -115.15916558962     -1.152E+02 1.092E+01 6.782E+03
 ETOT  2  -118.18684696087     -3.028E+00 1.659E-01 4.200E+01
 ETOT  3  -118.21459764592     -2.775E-02 9.203E-04 3.996E+00
 ETOT  4  -118.21618264582     -1.585E-03 1.102E-04 9.530E-02
 ETOT  5  -118.21622322568     -4.058E-05 1.586E-06 2.432E-02
[...]
                      -1.66666667E-01  0.00000000E+00  7.14285714E-02
                      -8.33333333E-02  0.00000000E+00  7.14285714E-02
                       0.00000000E+00  8.33333333E-02  7.14285714E-02
                       8.33333333E-02  8.33333333E-02  7.14285714E-02
                       1.66666667E-01  8.33333333E-02  7.14285714E-02
                       2.50000000E-01  8.33333333E-02  7.14285714E-02
                       3.33333333E-01  8.33333333E-02  7.14285714E-02
                       4.16666667E-01  8.33333333E-02  7.14285714E-02
                       5.00000000E-01  8.33333333E-02  7.14285714E-02
                      -4.16666667E-01  8.33333333E-02  7.14285714E-02
                      -3.33333333E-01  8.33333333E-02  7.14285714E-02
                      -2.50000000E-01  8.33333333E-02  7.14285714E-02
                      -1.66666667E-01  8.33333333E-02  7.14285714E-02
                      -8.33333333E-02  8.33333333E-02  7.14285714E-02
                       0.00000000E+00  1.66666667E-01  7.14285714E-02
                       8.33333333E-02  1.66666667E-01  7.14285714E-02
                       1.66666667E-01  1.66666667E-01  7.14285714E-02
                       2.50000000E-01  1.66666667E-01  7.14285714E-02
                       3.33333333E-01  1.66666667E-01  7.14285714E-02
                       4.16666667E-01  1.66666667E-01  7.14285714E-02
                       5.00000000E-01  1.66666667E-01  7.14285714E-02
                      -4.16666667E-01  1.66666667E-01  7.14285714E-02
                      -3.33333333E-01  1.66666667E-01  7.14285714E-02
                      -2.50000000E-01  1.66666667E-01  7.14285714E-02
                      -1.66666667E-01  1.66666667E-01  7.14285714E-02
                      -8.33333333E-02  1.66666667E-01  7.14285714E-02
                       0.00000000E+00  2.50000000E-01  7.14285714E-02
                       8.33333333E-02  2.50000000E-01  7.14285714E-02
                       1.66666667E-01  2.50000000E-01  7.14285714E-02
                       2.50000000E-01  2.50000000E-01  7.14285714E-02
                       3.33333333E-01  2.50000000E-01  7.14285714E-02
                       4.16666667E-01  2.50000000E-01  7.14285714E-02
                       5.00000000E-01  2.50000000E-01  7.14285714E-02
                      -4.16666667E-01  2.50000000E-01  7.14285714E-02
                      -3.33333333E-01  2.50000000E-01  7.14285714E-02
                      -2.50000000E-01  2.50000000E-01  7.14285714E-02
                      -1.66666667E-01  2.50000000E-01  7.14285714E-02
                      -8.33333333E-02  2.50000000E-01  7.14285714E-02
                       0.00000000E+00  3.33333333E-01  7.14285714E-02
                       8.33333333E-02  3.33333333E-01  7.14285714E-02
                       outvar_i_n : Printing only first  50 k-points.
           kptopt1          1
           kptopt2          2
           kptopt3          2
           kptopt4          2
           kptopt5          2
         kptrlatt       12    0    0      0   12    0      0    0    7
          kptrlen      6.63646965E+01
P           mkmem1          1
P           mkmem2          6
P           mkmem3          6
P           mkmem4          6
P           mkmem5          6
P          mkqmem1          1
P          mkqmem2          6
P          mkqmem3          6
P          mkqmem4          6
P          mkqmem5          6
P          mk1mem1          1
P          mk1mem2          6
P          mk1mem3          6
P          mk1mem4          6
P          mk1mem5          6
            natom           4
            nband1          8
            nband2          8
            nband3          8
            nband4          8
            nband5          8
           ndtset           5
            ngfft          32      32      50
             nkpt1         76
             nkpt2        506
             nkpt3        506
             nkpt4        506
             nkpt5        506
            nstep         200
             nsym          12
           ntypat           2
              occ1     2.000000  2.000000  2.000000  2.000000  2.000000  2.000000
                       2.000000  2.000000
              occ3     2.000000  2.000000  2.000000  2.000000  2.000000  2.000000
                       2.000000  2.000000
              occ4     2.000000  2.000000  2.000000  2.000000  2.000000  2.000000
                       2.000000  2.000000
              occ5     2.000000  2.000000  2.000000  2.000000  2.000000  2.000000
                       2.000000  2.000000
        optdriver1          0
        optdriver2          0
        optdriver3          1
        optdriver4          1
        optdriver5          5
        pawecutdg      3.00000000E+01 Hartree
          prepanl1          0
          prepanl2          0
          prepanl3          0
          prepanl4          1
          prepanl5          0
           prtden1          1
           prtden2          0
           prtden3          0
           prtden4          1
           prtden5          0
           prteig           0
           prtpot1          0
           prtpot2          0
           prtpot3          1
           prtpot4          1
           prtpot5          0
            prtwf1          1
            prtwf2          1
            prtwf3          1
            prtwf4          1
            prtwf5          0
           rfelfd1          0
           rfelfd2          0
           rfelfd3          2
           rfelfd4          3
           rfelfd5          0
           rfphon1          0
           rfphon2          0
           rfphon3          0
           rfphon4          1
           rfphon5          0
           rfstrs1          0
           rfstrs2          0
           rfstrs3          0
           rfstrs4          3
           rfstrs5          0
            rprim      5.9121747414E+00  0.0000000000E+00  0.0000000000E+00
                      -2.9560873707E+00  5.1200935176E+00  0.0000000000E+00
                       0.0000000000E+00  0.0000000000E+00  9.4806709296E+00
           shiftk      0.00000000E+00  0.00000000E+00  5.00000000E-01
          spgroup         186
           strten1     4.3518186501E-04  4.3518186508E-04  4.2828564293E-04
                       0.0000000000E+00  0.0000000000E+00  0.0000000000E+00
           strten3     0.0000000000E+00  0.0000000000E+00  0.0000000000E+00
                       0.0000000000E+00  0.0000000000E+00  0.0000000000E+00
           strten4     0.0000000000E+00  0.0000000000E+00  0.0000000000E+00
                       0.0000000000E+00  0.0000000000E+00  0.0000000000E+00
           strten5     0.0000000000E+00  0.0000000000E+00  0.0000000000E+00
                       0.0000000000E+00  0.0000000000E+00  0.0000000000E+00
           symrel      1  0  0   0  1  0   0  0  1       0  1  0   1  0  0   0  0  1
                       1  1  0  -1  0  0   0  0  1      -1  0  0   1  1  0   0  0  1
                       0  1  0  -1 -1  0   0  0  1      -1 -1  0   0  1  0   0  0  1
                      -1  0  0   0 -1  0   0  0  1       0 -1  0  -1  0  0   0  0  1
                      -1 -1  0   1  0  0   0  0  1       1  0  0  -1 -1  0   0  0  1
                       0 -1  0   1  1  0   0  0  1       1  1  0   0 -1  0   0  0  1
            tnons      0.0000000  0.0000000  0.0000000     0.0000000  0.0000000  0.5000000
                       0.0000000  0.0000000  0.5000000     0.0000000  0.0000000  0.0000000
                       0.0000000  0.0000000  0.0000000     0.0000000  0.0000000  0.5000000
                       0.0000000  0.0000000  0.5000000     0.0000000  0.0000000  0.0000000
                       0.0000000  0.0000000  0.0000000     0.0000000  0.0000000  0.5000000
                       0.0000000  0.0000000  0.5000000     0.0000000  0.0000000  0.0000000
           toldfe1     1.00000000E-12 Hartree
           toldfe2     0.00000000E+00 Hartree
           toldfe3     0.00000000E+00 Hartree
           toldfe4     0.00000000E+00 Hartree
           toldfe5     0.00000000E+00 Hartree
           tolvrs1     0.00000000E+00
           tolvrs2     0.00000000E+00
           tolvrs3     0.00000000E+00
           tolvrs4     1.00000000E-12
           tolvrs5     0.00000000E+00
           tolwfr1     0.00000000E+00
           tolwfr2     1.00000000E-22
           tolwfr3     1.00000000E-22
           tolwfr4     0.00000000E+00
           tolwfr5     0.00000000E+00
            typat      1  1  2  2
              wtk1       0.00198    0.01190    0.01190    0.01190    0.01190    0.01190
                         0.00595    0.01190    0.02381    0.02381    0.02381    0.02381
                         0.01190    0.02381    0.02381    0.01190    0.01190    0.02381
                         0.00397    0.00198    0.01190    0.01190    0.01190    0.01190
                         0.01190    0.00595    0.01190    0.02381    0.02381    0.02381
                         0.02381    0.01190    0.02381    0.02381    0.01190    0.01190
                         0.02381    0.00397    0.00198    0.01190    0.01190    0.01190
                         0.01190    0.01190    0.00595    0.01190    0.02381    0.02381
                         0.02381    0.02381
              wtk2       0.00198    0.00198    0.00198    0.00198    0.00198    0.00198
                         0.00198    0.00198    0.00198    0.00198    0.00198    0.00198
                         0.00198    0.00198    0.00198    0.00198    0.00198    0.00198
                         0.00198    0.00198    0.00198    0.00198    0.00198    0.00198
                         0.00198    0.00198    0.00198    0.00198    0.00198    0.00198
                         0.00198    0.00198    0.00198    0.00198    0.00198    0.00198
                         0.00198    0.00198    0.00198    0.00198    0.00198    0.00198
                         0.00198    0.00198    0.00198    0.00198    0.00198    0.00198
                         0.00198    0.00198
              wtk3       0.00198    0.00198    0.00198    0.00198    0.00198    0.00198
                         0.00198    0.00198    0.00198    0.00198    0.00198    0.00198
                         0.00198    0.00198    0.00198    0.00198    0.00198    0.00198
                         0.00198    0.00198    0.00198    0.00198    0.00198    0.00198
                         0.00198    0.00198    0.00198    0.00198    0.00198    0.00198
                         0.00198    0.00198    0.00198    0.00198    0.00198    0.00198
                         0.00198    0.00198    0.00198    0.00198    0.00198    0.00198
                         0.00198    0.00198    0.00198    0.00198    0.00198    0.00198
                         0.00198    0.00198
              wtk4       0.00198    0.00198    0.00198    0.00198    0.00198    0.00198
                         0.00198    0.00198    0.00198    0.00198    0.00198    0.00198
                         0.00198    0.00198    0.00198    0.00198    0.00198    0.00198
                         0.00198    0.00198    0.00198    0.00198    0.00198    0.00198
                         0.00198    0.00198    0.00198    0.00198    0.00198    0.00198
                         0.00198    0.00198    0.00198    0.00198    0.00198    0.00198
                         0.00198    0.00198    0.00198    0.00198    0.00198    0.00198
                         0.00198    0.00198    0.00198    0.00198    0.00198    0.00198
                         0.00198    0.00198
              wtk5       0.00198    0.00198    0.00198    0.00198    0.00198    0.00198
                         0.00198    0.00198    0.00198    0.00198    0.00198    0.00198
                         0.00198    0.00198    0.00198    0.00198    0.00198    0.00198
                         0.00198    0.00198    0.00198    0.00198    0.00198    0.00198
                         0.00198    0.00198    0.00198    0.00198    0.00198    0.00198
                         0.00198    0.00198    0.00198    0.00198    0.00198    0.00198
                         0.00198    0.00198    0.00198    0.00198    0.00198    0.00198
                         0.00198    0.00198    0.00198    0.00198    0.00198    0.00198
                         0.00198    0.00198
                       outvars : Printing only first  50 k-points.
           xangst     -2.3883303541E-17  1.8062911969E+00  5.0133778892E+00
                       1.5642940632E+00  9.0314559845E-01  2.5049004001E+00
                      -2.3883303541E-17  1.8062911969E+00  1.9100199806E+00
                       1.5642940632E+00  9.0314559845E-01  4.4184974696E+00
            xcart     -4.5132902841E-17  3.4133956784E+00  9.4739112112E+00
                       2.9560873707E+00  1.7066978392E+00  4.7335757464E+00
                      -4.5132902841E-17  3.4133956784E+00  3.6094146716E+00
                       2.9560873707E+00  1.7066978392E+00  8.3497501364E+00
             xred      3.3333333333E-01  6.6666666667E-01  9.9928700000E-01
                       6.6666666667E-01  3.3333333333E-01  4.9928700000E-01
                       3.3333333333E-01  6.6666666667E-01  3.8071300000E-01
                       6.6666666667E-01  3.3333333333E-01  8.8071300000E-01
            znucl       13.00000    7.00000

================================================================================


- Timing analysis has been suppressed with timopt=0



================================================================================

 Suggested references for the acknowledgment of ABINIT usage.

 The users of ABINIT have little formal obligations with respect to the ABINIT group
 (those specified in the GNU General Public License, http://www.gnu.org/copyleft/gpl.txt).
 However, it is common practice in the scientific literature,
 to acknowledge the efforts of people that have made the research possible.
 In this spirit, please find below suggested citations of work written by ABINIT developers,
 corresponding to implementations inside of ABINIT that you have used in the present run.
 Note also that it will be of great value to readers of publications presenting these results,
 to read papers enabling them to understand the theoretical formalism and details
 of the ABINIT implementation.
 For information on why they are suggested, see also https://docs.abinit.org/theory/acknowledgments.
-
- [1] Nonlinear optical susceptibilities, Raman efficiencies, and electrooptic tensors
- from first principles density functional theory.
- M. Veithen, X. Gonze, and Ph. Ghosez, Phys. Rev. B 71, 125107 (2005).
- Comment: to be cited for non-linear response calculations, with optdriver=5.
- DOI and bibtex: see https://docs.abinit.org/theory/bibliography/#veithen2005
-
- [2] Metric tensor formulation of strain in density-functional perturbation theory, 
- D. R. Hamann, X. Wu, K. M. Rabe, and D. Vanderbilt, Phys. Rev. B71, 035117 (2005).
- Comment: Non-vanishing rfstrs. Strong suggestion to cite this paper in your publications.
- DOI and bibtex: see https://docs.abinit.org/theory/bibliography/#hamann2005
-
- [3] Libxc: A library of exchange and correlation functionals for density functional theory.
- M.A.L. Marques, M.J.T. Oliveira, T. Burnus, Computer Physics Communications 183, 2227 (2012).
- Comment: to be cited when LibXC is used (negative value of ixc)
- Strong suggestion to cite this paper.
- DOI and bibtex: see https://docs.abinit.org/theory/bibliography/#marques2012
-
- [4] The Abinit project: Impact, environment and recent developments.
- Computer Phys. Comm. 248, 107042 (2020).
- X.Gonze, B. Amadon, G. Antonius, F.Arnardi, L.Baguet, J.-M.Beuken,
- J.Bieder, F.Bottin, J.Bouchet, E.Bousquet, N.Brouwer, F.Bruneval,
- G.Brunin, T.Cavignac, J.-B. Charraud, Wei Chen, M.Cote, S.Cottenier,
- J.Denier, G.Geneste, Ph.Ghosez, M.Giantomassi, Y.Gillet, O.Gingras,
- D.R.Hamann, G.Hautier, Xu He, N.Helbig, N.Holzwarth, Y.Jia, F.Jollet,
- W.Lafargue-Dit-Hauret, K.Lejaeghere, M.A.L.Marques, A.Martin, C.Martins,
- H.P.C. Miranda, F.Naccarato, K. Persson, G.Petretto, V.Planes, Y.Pouillon,
- S.Prokhorenko, F.Ricci, G.-M.Rignanese, A.H.Romero, M.M.Schmitt, M.Torrent,
- M.J.van Setten, B.Van Troeye, M.J.Verstraete, G.Zerah and J.W.Zwanzig
- Comment: the fifth generic paper describing the ABINIT project.
- Note that a version of this paper, that is not formatted for Computer Phys. Comm. 
- is available at https://www.abinit.org/sites/default/files/ABINIT20.pdf .
- The licence allows the authors to put it on the Web.
- DOI and bibtex: see https://docs.abinit.org/theory/bibliography/#gonze2020
-
- [5] First-principles responses of solids to atomic displacements and homogeneous electric fields:,
- implementation of a conjugate-gradient algorithm. X. Gonze, Phys. Rev. B55, 10337 (1997).
- Comment: Non-vanishing rfphon and/or rfelfd, in the norm-conserving case.
- DOI and bibtex: see https://docs.abinit.org/theory/bibliography/#gonze1997
-
- [6] Dynamical matrices, Born effective charges, dielectric permittivity tensors, and ,
- interatomic force constants from density-functional perturbation theory,
- X. Gonze and C. Lee, Phys. Rev. B55, 10355 (1997).
- Comment: Non-vanishing rfphon and/or rfelfd, in the norm-conserving case.
- DOI and bibtex: see https://docs.abinit.org/theory/bibliography/#gonze1997a
-
- [7] Optimized norm-conserving Vanderbilt pseudopotentials.
- D.R. Hamann, Phys. Rev. B 88, 085117 (2013).
- Comment: Some pseudopotential generated using the ONCVPSP code were used.
- DOI and bibtex: see https://docs.abinit.org/theory/bibliography/#hamann2013
-
- [8] ABINIT: Overview, and focus on selected capabilities
- J. Chem. Phys. 152, 124102 (2020).
- A. Romero, D.C. Allan, B. Amadon, G. Antonius, T. Applencourt, L.Baguet,
- J.Bieder, F.Bottin, J.Bouchet, E.Bousquet, F.Bruneval,
- G.Brunin, D.Caliste, M.Cote,
- J.Denier, C. Dreyer, Ph.Ghosez, M.Giantomassi, Y.Gillet, O.Gingras,
- D.R.Hamann, G.Hautier, F.Jollet, G. Jomard,
- A.Martin, 
- H.P.C. Miranda, F.Naccarato, G.Petretto, N.A. Pike, V.Planes,
- S.Prokhorenko, T. Rangel, F.Ricci, G.-M.Rignanese, M.Royo, M.Stengel, M.Torrent,
- M.J.van Setten, B.Van Troeye, M.J.Verstraete, J.Wiktor, J.W.Zwanziger, and X.Gonze.
- Comment: a global overview of ABINIT, with focus on selected capabilities .
- Note that a version of this paper, that is not formatted for J. Chem. Phys 
- is available at https://www.abinit.org/sites/default/files/ABINIT20_JPC.pdf .
- The licence allows the authors to put it on the Web.
- DOI and bibtex: see https://docs.abinit.org/theory/bibliography/#romero2020
-
- [9] Recent developments in the ABINIT software package.
- Computer Phys. Comm. 205, 106 (2016).
- X.Gonze, F.Jollet, F.Abreu Araujo, D.Adams, B.Amadon, T.Applencourt,
- C.Audouze, J.-M.Beuken, J.Bieder, A.Bokhanchuk, E.Bousquet, F.Bruneval
- D.Caliste, M.Cote, F.Dahm, F.Da Pieve, M.Delaveau, M.Di Gennaro,
- B.Dorado, C.Espejo, G.Geneste, L.Genovese, A.Gerossier, M.Giantomassi,
- Y.Gillet, D.R.Hamann, L.He, G.Jomard, J.Laflamme Janssen, S.Le Roux,
- A.Levitt, A.Lherbier, F.Liu, I.Lukacevic, A.Martin, C.Martins,
- M.J.T.Oliveira, S.Ponce, Y.Pouillon, T.Rangel, G.-M.Rignanese,
- A.H.Romero, B.Rousseau, O.Rubel, A.A.Shukri, M.Stankovski, M.Torrent,
- M.J.Van Setten, B.Van Troeye, M.J.Verstraete, D.Waroquier, J.Wiktor,
- B.Xu, A.Zhou, J.W.Zwanziger.
- Comment: the fourth generic paper describing the ABINIT project.
- Note that a version of this paper, that is not formatted for Computer Phys. Comm. 
- is available at https://www.abinit.org/sites/default/files/ABINIT16.pdf .
- The licence allows the authors to put it on the Web.
- DOI and bibtex: see https://docs.abinit.org/theory/bibliography/#gonze2016
-
- Proc.   0 individual time (sec): cpu=        353.6  wall=        526.2

================================================================================

 Calculation completed.
.Delivered   1 WARNINGs and   1 COMMENTs to log file.
+Overall time at end (sec) : cpu=      37012.0  wall=      51513.1
