  ABINIT 10.6.5
  
ABI_PSPDIR  found in environment, with value /work/10335/mias0356/ls6/work/modules/abinit-10.4.5/tests//Pspdir/
-instrng: 144 lines of input have been read from file tnlo_1.abi
 

.Version 10.6.5 of ABINIT. v10.6.5 released Mar 2026.
.(MPI version, prepared for a x86_64_linux_nvhpc25.3-0 computer) 

.Copyright (C) 1998-2026 ABINIT group . 
 ABINIT comes with ABSOLUTELY NO WARRANTY.
 It is free software, and you are welcome to redistribute it
 under certain conditions (GNU General Public License,
 see ~abinit/COPYING or http://www.gnu.org/copyleft/gpl.txt).

 ABINIT is a project of the Universite Catholique de Louvain,
 Corning Inc. and other collaborators, see ~abinit/doc/developers/contributors.txt .
 Please read https://docs.abinit.org/theory/acknowledgments for suggested
 acknowledgments of the ABINIT effort.
 For more information, see https://www.abinit.org .

.Starting date : Thu  2 Apr 2026.
- ( at 14h15 )
  
 
 ++++++++++++++++++++++++++++++++++++++++++++++++++++++++++++++++++++++++++++++
 
 === Build Information === 
  Version       : 10.6.5
  Build target  : x86_64_linux_nvhpc25.3-0
  Build date    : 20260329
 
 === Compiler Suite === 
  C compiler       : nvhpc25.3-0
  C++ compiler     : nvhpc25.3-0
  Fortran compiler : nvhpc25.3-0
  CFLAGS           : -g -fast
  CXXFLAGS         : -g -fast
  FCFLAGS          : -g -Mextend -mp -mp=gpu -Minfo=mp -gpu=cc80    -mp -mp=gpu -Minfo=m ...
  FC_LDFLAGS       : 
 
 === Optimizations === 
  Debug level        : basic
  Optimization level : standard
  Architecture       : amd_epyc
 
 === Multicore === 
  Parallel build : /work/10335/mias0356/ls6/work/modules-gpu/Linux_x86_64/25.3/comm_libs/12.8/openmpi4/openmpi-4.1.5
  Parallel I/O   : yes
  openMP support : yes
  GPU support    : @with_gpu@
 
 === Connectors / Fallbacks === 
  LINALG flavor  : none
  FFT flavor     : fftw3-threads
  HDF5           : yes
  NetCDF         : yes
  NetCDF Fortran : yes
  LibXC          : yes
  Wannier90      : yes
 
 === Experimental features === 
  Exports             : @enable_exports@
  GW double-precision : yes
 
 ++++++++++++++++++++++++++++++++++++++++++++++++++++++++++++++++++++++++++++++
 

 ++++++++++++++++++++++++++++++++++++++++++++++++++++++++++++++++++++++++++++++
 Default optimizations:
   -fast


 Optimizations for 43_ptgroups:
   -O0


 Optimizations for 80_tdep:
   -O1 -g


 ++++++++++++++++++++++++++++++++++++++++++++++++++++++++++++++++++++++++++++++


 ++++++++++++++++++++++++++++++++++++++++++++++++++++++++++++++++++++++++++++++
 CPP options activated during the build:

                  CC_NVHPC                 CXX_NVHPC                  FC_NVHPC
 
 HAVE_FC_ALLOCATABLE_DT...             HAVE_FC_ASYNC  HAVE_FC_COMMAND_ARGUMENT
 
      HAVE_FC_COMMAND_LINE        HAVE_FC_CONTIGUOUS           HAVE_FC_CPUTIME
 
             HAVE_FC_ETIME              HAVE_FC_EXIT             HAVE_FC_FLUSH
 
             HAVE_FC_GAMMA            HAVE_FC_GETENV            HAVE_FC_GETPID
 
   HAVE_FC_IEEE_ARITHMETIC   HAVE_FC_IEEE_EXCEPTIONS             HAVE_FC_IOMSG
 
     HAVE_FC_ISO_C_BINDING  HAVE_FC_ISO_FORTRAN_2008        HAVE_FC_LONG_LINES
 
        HAVE_FC_MOVE_ALLOC  HAVE_FC_ON_THE_FLY_SHAPE           HAVE_FC_PRIVATE
 
         HAVE_FC_PROTECTED           HAVE_FC_SHIFTLR         HAVE_FC_STREAM_IO
 
            HAVE_FC_SYSTEM                HAVE_FFTW3            HAVE_FFTW3_MPI
 
        HAVE_FFTW3_THREADS                  HAVE_GPU             HAVE_GPU_CUDA
 
           HAVE_GPU_CUDA10          HAVE_GPU_CUDA_DP              HAVE_GPU_MPI
 
           HAVE_GPU_SERIAL               HAVE_GW_DPC                 HAVE_HDF5
 
             HAVE_HDF5_MPI        HAVE_LIBPAW_ABINIT      HAVE_LIBTETRA_ABINIT
 
                HAVE_LIBXC         HAVE_LINALG_AXPBY        HAVE_LINALG_GEMM3M
 
         HAVE_LINALG_GEMMT HAVE_LINALG_OPENBLAS_T...     HAVE_LINALG_ZDOTC_B*G
 
     HAVE_LINALG_ZDOTU_B*G                  HAVE_MPI                 HAVE_MPI2
 
         HAVE_MPI2_INPLACE HAVE_MPI_ALLOCATE_SHAR...       HAVE_MPI_IALLGATHER
 
       HAVE_MPI_IALLREDUCE        HAVE_MPI_IALLTOALL       HAVE_MPI_IALLTOALLV
 
           HAVE_MPI_IBCAST         HAVE_MPI_IGATHERV        HAVE_MPI_INTEGER16
 
               HAVE_MPI_IO HAVE_MPI_TYPE_CREATE_S...               HAVE_NETCDF
 
       HAVE_NETCDF_FORTRAN   HAVE_NETCDF_FORTRAN_MPI           HAVE_NETCDF_MPI
 
         HAVE_OMP_COLLAPSE               HAVE_OPENMP HAVE_OPENMP_GET_MAPPED...
 
       HAVE_OPENMP_OFFLOAD HAVE_OPENMP_OFFLOAD_DA...             HAVE_OS_LINUX
 
         HAVE_TIMER_ABINIT            HAVE_WANNIER90                            
 ++++++++++++++++++++++++++++++++++++++++++++++++++++++++++++++++++++++++++++++

- input  file    -> tnlo_1.abi
- output file    -> tnlo_1.abo
- root for input  files -> tnlo_1i
- root for output files -> tnlo_1o
 
 abinit : after writing the name of files
 Netcdf library supports MPI-IO
ABI_PSPDIR  found in environment, with value /work/10335/mias0356/ls6/work/modules/abinit-10.4.5/tests//Pspdir/
-instrng: 144 lines of input have been read from file tnlo_1.abi
 
 For atom type 1, psp file is /work/10335/mias0356/ls6/work/modules/abinit-10.4.5/tests//Pspdir/Psdj_nc_sr_04_pw_std_psp8/Al.psp8
 For atom type 2, psp file is /work/10335/mias0356/ls6/work/modules/abinit-10.4.5/tests//Pspdir/Psdj_nc_sr_04_pw_std_psp8/Fe.psp8
 For atom type 3, psp file is /work/10335/mias0356/ls6/work/modules/abinit-10.4.5/tests//Pspdir/Psdj_nc_sr_04_pw_std_psp8/N.psp8
  read the values zionpsp=  3.0 , pspcod=   8 , lmax=   2
  read the values zionpsp= 16.0 , pspcod=   8 , lmax=   2
  read the values zionpsp=  5.0 , pspcod=   8 , lmax=   1
 
 inpspheads: deduce mpsang = 3, n1xccc = 2501.

======================================================= 
 invars1m : enter jdtset= 0
  xred   is defined in input file
 ingeo: takes atomic coordinates from input array xred
 
--- !COMMENT
src_file: m_symfind.F90
src_line: 780
message: |
    The tolerance on symmetries =   1.000E-05 is bigger than 1.0e-8.
    In order to avoid spurious effects, the atomic coordinates have been
    symmetrized before storing them in the dataset internal variable.
    So, do not be surprised by the fact that your input variables (xcart, xred, ...)
    do not correspond exactly to the ones echoed by ABINIT, the latter being used to do the calculations.
    This is not a problem per se.
    Still, in order to avoid this symmetrization (e.g. for specific debugging/development), decrease tolsym to 1.0e-8 or lower,
    or (much preferred) use input primitive vectors that are accurate to better than 1.0e-8.
    This message will only be printed once, even if there are other datasets where tolsym is bigger than 1.0e-8.
...
 
 
 symlatt: the Bravais lattice is oP (primitive orthorhombic)
 
--- !COMMENT
src_file: m_symfind.F90
src_line: 1223
message: |
    The Bravais lattice determined only from the primitive
    vectors, bravais(1)=  3, is more symmetric
    than the real one, iholohedry=  1, obtained by taking into
    account the atomic positions. Start deforming the primitive vector set.
...
 
 
 symlatt: the Bravais lattice is aP (primitive triclinic)
 symspgr: spgroup=   1  P1   (=C1^1)
 Slater exchange
 P. A. M. Dirac.,  Math. Proc. Cambridge Philos. Soc. 26, 376 (1930)
 F. Bloch.,  Z. Phys. 57, 545 (1929)
 Perdew & Wang
 J. P. Perdew and Y. Wang.,  Phys. Rev. B 45, 13244 (1992)
 
 initocc_chkneu: initialized the occupation numbers for occopt= 3
    spin up   values:
 For input ecut=  3.000000E+01 best grid ngfft=      50      60      96
       max ecut=  3.036992E+01
 
 ==== FFT mesh ====
  FFT mesh divisions ........................    50   60   96
  Augmented FFT divisions ...................    50   60   96
  FFT algorithm .............................   401
  FFT cache size ............................    16
 getmpw: optimal value of mpw= 16772
 Symmetries : space group P1 (#  1); Bravais aP (primitive triclinic)
 
 getdim_nloc: deduce lmnmax  =  18, lnmax  =   6,
                      lmnmaxso=  18, lnmaxso=   6.
memory: analysis of memory needs
================================================================================
 Values of the parameters that define the memory need of the present run
     intxc =       0    ionmov =       2      iscf =       7    lmnmax =      18
     lnmax =       6     mgfft =      96  mpssoang =       3    mqgrid =    4571
     natom =      32  nloc_mem =       1    nspden =       2   nspinor =       1
    nsppol =       2      nsym =       1    n1xccc =    2501    ntypat =       3
    occopt =       3   xclevel =       1
-    mband =         150        mffmem =           1         mkmem =          38
       mpw =       16772          nfft =      288000          nkpt =          38
================================================================================
P This job should need less than                    3166.330 Mbytes of memory.
  Rough estimation (10% accuracy) of disk space for files :
_ WF disk file :   2917.495 Mbytes ; DEN or POT disk file :      4.397 Mbytes.
================================================================================
 
 Biggest array : f_fftgr(disk), with     70.3145 MBytes.
 memana : allocated an array of     70.315 Mbytes, for testing purposes.
 memana: allocated    3166.330Mbytes, for testing purposes. 
 The job will continue.
--------------------------------------------------------------------------------
------------- Echo of variables that govern the present computation ------------
--------------------------------------------------------------------------------
-
- outvars: echo of selected default values
-   iomode0 =  0 , fftalg0 =312 , wfoptalg0 =  0
-
- outvars: echo of global parameters not present in the input file
-  max_nthreads =    1
-
 -outvars: echo values of preprocessed input variables --------
 
 These variables are accessible in NetCDF format (tnlo_1o_OUT.nc)

            acell      1.0000000000E+00  1.0000000000E+00  1.0000000000E+00 Bohr
              amu      2.69815390E+01  5.58470000E+01  1.40067400E+01
        autoparal           1
       chkdilatmx           0
          chkprim           0
             ecut      3.00000000E+01 Hartree
-          fftalg         401
-      gpu_option           2
-gpu_thread_limit           1
           ionmov           2
           istwfk        0    0    0    0    0    0    0    0    0    0
                         0    0    0    0    0    0    0    0    0    0
                         0    0    0    0    0    0    0    1    0    0
                         1    0    0    0    1    0    1    0
              ixc       -1012
              kpt     -1.66666667E-01 -3.33333333E-01  0.00000000E+00
                      -3.33333333E-01 -1.66666667E-01  0.00000000E+00
                      -1.66666667E-01 -1.66666667E-01  2.50000000E-01
                      -1.66666667E-01  3.33333333E-01  0.00000000E+00
                      -3.33333333E-01  5.00000000E-01  0.00000000E+00
                      -1.66666667E-01  5.00000000E-01  2.50000000E-01
                       5.00000000E-01 -3.33333333E-01  0.00000000E+00
                      -3.33333333E-01 -3.33333333E-01  2.50000000E-01
                      -1.66666667E-01 -3.33333333E-01  5.00000000E-01
                       3.33333333E-01 -1.66666667E-01  0.00000000E+00
                       5.00000000E-01 -1.66666667E-01  2.50000000E-01
                      -3.33333333E-01 -1.66666667E-01  5.00000000E-01
                      -1.66666667E-01 -1.66666667E-01 -2.50000000E-01
                      -1.66666667E-01  0.00000000E+00  0.00000000E+00
                      -1.66666667E-01  1.66666667E-01  2.50000000E-01
                      -3.33333333E-01  3.33333333E-01  2.50000000E-01
                      -1.66666667E-01  3.33333333E-01  5.00000000E-01
                       5.00000000E-01  5.00000000E-01  2.50000000E-01
                      -3.33333333E-01  5.00000000E-01  5.00000000E-01
                      -1.66666667E-01  5.00000000E-01 -2.50000000E-01
                       3.33333333E-01 -3.33333333E-01  2.50000000E-01
                       5.00000000E-01 -3.33333333E-01  5.00000000E-01
                      -3.33333333E-01 -3.33333333E-01 -2.50000000E-01
                       0.00000000E+00 -1.66666667E-01  0.00000000E+00
                       1.66666667E-01 -1.66666667E-01  2.50000000E-01
                       3.33333333E-01 -1.66666667E-01  5.00000000E-01
                       5.00000000E-01 -1.66666667E-01 -2.50000000E-01
                       5.00000000E-01  0.00000000E+00  0.00000000E+00
                      -3.33333333E-01  0.00000000E+00  2.50000000E-01
                      -1.66666667E-01  0.00000000E+00  5.00000000E-01
                       0.00000000E+00  5.00000000E-01  0.00000000E+00
                       0.00000000E+00 -3.33333333E-01  2.50000000E-01
                       0.00000000E+00 -1.66666667E-01  5.00000000E-01
                       3.33333333E-01  0.00000000E+00  2.50000000E-01
                       5.00000000E-01  0.00000000E+00  5.00000000E-01
                       0.00000000E+00  3.33333333E-01  2.50000000E-01
                       0.00000000E+00  5.00000000E-01  5.00000000E-01
                       0.00000000E+00  0.00000000E+00  2.50000000E-01
         kptrlatt        3   -3    2     -3    3    2     -3   -3    2
          kptrlen      5.88220654E+01
P           mkmem          38
            natom          32
            nband         150
            ngfft          50      60      96
             nkpt          38
            nline           5
    nblock_lobpcg         150
           nspden           2
           nsppol           2
            nstep         100
             nsym           1
            ntime         100
           ntypat           3
              occ      1.000000  1.000000  1.000000  1.000000  1.000000  1.000000
                       1.000000  1.000000  1.000000  1.000000  1.000000  1.000000
                       1.000000  1.000000  1.000000  1.000000  1.000000  1.000000
                       1.000000  1.000000  1.000000  1.000000  1.000000  1.000000
                       1.000000  1.000000  1.000000  1.000000  1.000000  1.000000
                       1.000000  1.000000  1.000000  1.000000  1.000000  1.000000
                       1.000000  1.000000  1.000000  1.000000  1.000000  1.000000
                       1.000000  1.000000  1.000000  1.000000  1.000000  1.000000
                       1.000000  1.000000  1.000000  1.000000  1.000000  1.000000
                       1.000000  1.000000  1.000000  1.000000  1.000000  1.000000
                       1.000000  1.000000  1.000000  1.000000  1.000000  1.000000
                       1.000000  1.000000  1.000000  1.000000  1.000000  1.000000
                       1.000000  1.000000  1.000000  1.000000  1.000000  1.000000
                       1.000000  1.000000  1.000000  1.000000  1.000000  1.000000
                       1.000000  1.000000  1.000000  1.000000  1.000000  1.000000
                       1.000000  1.000000  1.000000  1.000000  1.000000  1.000000
                       1.000000  1.000000  1.000000  1.000000  1.000000  1.000000
                       1.000000  0.000000  0.000000  0.000000  0.000000  0.000000
                       0.000000  0.000000  0.000000  0.000000  0.000000  0.000000
                       0.000000  0.000000  0.000000  0.000000  0.000000  0.000000
                       0.000000  0.000000  0.000000  0.000000  0.000000  0.000000
                       0.000000  0.000000  0.000000  0.000000  0.000000  0.000000
                       0.000000  0.000000  0.000000  0.000000  0.000000  0.000000
                       0.000000  0.000000  0.000000  0.000000  0.000000  0.000000
                       0.000000  0.000000  0.000000  0.000000  0.000000  0.000000
                       1.000000  1.000000  1.000000  1.000000  1.000000  1.000000
                       1.000000  1.000000  1.000000  1.000000  1.000000  1.000000
                       1.000000  1.000000  1.000000  1.000000  1.000000  1.000000
                       1.000000  1.000000  1.000000  1.000000  1.000000  1.000000
                       1.000000  1.000000  1.000000  1.000000  1.000000  1.000000
                       1.000000  1.000000  1.000000  1.000000  1.000000  1.000000
                       1.000000  1.000000  1.000000  1.000000  1.000000  1.000000
                       1.000000  1.000000  1.000000  1.000000  1.000000  1.000000
                       1.000000  1.000000  1.000000  1.000000  1.000000  1.000000
                       1.000000  1.000000  1.000000  1.000000  1.000000  1.000000
                       1.000000  1.000000  1.000000  1.000000  1.000000  1.000000
                       1.000000  1.000000  1.000000  1.000000  1.000000  1.000000
                       1.000000  1.000000  1.000000  1.000000  1.000000  1.000000
                       1.000000  1.000000  1.000000  1.000000  1.000000  1.000000
                       1.000000  1.000000  1.000000  1.000000  1.000000  1.000000
                       1.000000  1.000000  1.000000  1.000000  1.000000  1.000000
                       1.000000  1.000000  1.000000  1.000000  1.000000  1.000000
                       1.000000  0.000000  0.000000  0.000000  0.000000  0.000000
                       0.000000  0.000000  0.000000  0.000000  0.000000  0.000000
                       0.000000  0.000000  0.000000  0.000000  0.000000  0.000000
                       0.000000  0.000000  0.000000  0.000000  0.000000  0.000000
                       0.000000  0.000000  0.000000  0.000000  0.000000  0.000000
                       0.000000  0.000000  0.000000  0.000000  0.000000  0.000000
                       0.000000  0.000000  0.000000  0.000000  0.000000  0.000000
                       0.000000  0.000000  0.000000  0.000000  0.000000  0.000000
                       1.000000  1.000000  1.000000  1.000000  1.000000  1.000000
                       1.000000  1.000000  1.000000  1.000000  1.000000  1.000000
                       1.000000  1.000000  1.000000  1.000000  1.000000  1.000000
                       1.000000  1.000000  1.000000  1.000000  1.000000  1.000000
                       1.000000  1.000000  1.000000  1.000000  1.000000  1.000000
                       1.000000  1.000000  1.000000  1.000000  1.000000  1.000000
                       1.000000  1.000000  1.000000  1.000000  1.000000  1.000000
                       1.000000  1.000000  1.000000  1.000000  1.000000  1.000000
                       1.000000  1.000000  1.000000  1.000000  1.000000  1.000000
                       1.000000  1.000000  1.000000  1.000000  1.000000  1.000000
                       1.000000  1.000000  1.000000  1.000000  1.000000  1.000000
                       1.000000  1.000000  1.000000  1.000000  1.000000  1.000000
                       1.000000  1.000000  1.000000  1.000000  1.000000  1.000000
                       1.000000  1.000000  1.000000  1.000000  1.000000  1.000000
                       1.000000  1.000000  1.000000  1.000000  1.000000  1.000000
                       1.000000  1.000000  1.000000  1.000000  1.000000  1.000000
                       1.000000  1.000000  1.000000  1.000000  1.000000  1.000000
                       1.000000  0.000000  0.000000  0.000000  0.000000  0.000000
                       0.000000  0.000000  0.000000  0.000000  0.000000  0.000000
                       0.000000  0.000000  0.000000  0.000000  0.000000  0.000000
                       0.000000  0.000000  0.000000  0.000000  0.000000  0.000000
                       0.000000  0.000000  0.000000  0.000000  0.000000  0.000000
                       0.000000  0.000000  0.000000  0.000000  0.000000  0.000000
                       0.000000  0.000000  0.000000  0.000000  0.000000  0.000000
                       0.000000  0.000000  0.000000  0.000000  0.000000  0.000000
                       1.000000  1.000000  1.000000  1.000000  1.000000  1.000000
                       1.000000  1.000000  1.000000  1.000000  1.000000  1.000000
                       1.000000  1.000000  1.000000  1.000000  1.000000  1.000000
                       1.000000  1.000000  1.000000  1.000000  1.000000  1.000000
                       1.000000  1.000000  1.000000  1.000000  1.000000  1.000000
                       1.000000  1.000000  1.000000  1.000000  1.000000  1.000000
                       1.000000  1.000000  1.000000  1.000000  1.000000  1.000000
                       1.000000  1.000000  1.000000  1.000000  1.000000  1.000000
                       1.000000  1.000000  1.000000  1.000000  1.000000  1.000000
                       1.000000  1.000000  1.000000  1.000000  1.000000  1.000000
                       1.000000  1.000000  1.000000  1.000000  1.000000  1.000000
                       1.000000  1.000000  1.000000  1.000000  1.000000  1.000000
                       1.000000  1.000000  1.000000  1.000000  1.000000  1.000000
                       1.000000  1.000000  1.000000  1.000000  1.000000  1.000000
                       1.000000  1.000000  1.000000  1.000000  1.000000  1.000000
                       1.000000  1.000000  1.000000  1.000000  1.000000  1.000000
                       1.000000  1.000000  1.000000  1.000000  1.000000  1.000000
                       1.000000  0.000000  0.000000  0.000000  0.000000  0.000000
                       0.000000  0.000000  0.000000  0.000000  0.000000  0.000000
                       0.000000  0.000000  0.000000  0.000000  0.000000  0.000000
                       0.000000  0.000000  0.000000  0.000000  0.000000  0.000000
                       0.000000  0.000000  0.000000  0.000000  0.000000  0.000000
                       0.000000  0.000000  0.000000  0.000000  0.000000  0.000000
                       0.000000  0.000000  0.000000  0.000000  0.000000  0.000000
                       0.000000  0.000000  0.000000  0.000000  0.000000  0.000000
                       1.000000  1.000000  1.000000  1.000000  1.000000  1.000000
                       1.000000  1.000000  1.000000  1.000000  1.000000  1.000000
                       1.000000  1.000000  1.000000  1.000000  1.000000  1.000000
                       1.000000  1.000000  1.000000  1.000000  1.000000  1.000000
                       1.000000  1.000000  1.000000  1.000000  1.000000  1.000000
                       1.000000  1.000000  1.000000  1.000000  1.000000  1.000000
                       1.000000  1.000000  1.000000  1.000000  1.000000  1.000000
                       1.000000  1.000000  1.000000  1.000000  1.000000  1.000000
                       1.000000  1.000000  1.000000  1.000000  1.000000  1.000000
                       1.000000  1.000000  1.000000  1.000000  1.000000  1.000000
                       1.000000  1.000000  1.000000  1.000000  1.000000  1.000000
                       1.000000  1.000000  1.000000  1.000000  1.000000  1.000000
                       1.000000  1.000000  1.000000  1.000000  1.000000  1.000000
                       1.000000  1.000000  1.000000  1.000000  1.000000  1.000000
                       1.000000  1.000000  1.000000  1.000000  1.000000  1.000000
                       1.000000  1.000000  1.000000  1.000000  1.000000  1.000000
                       1.000000  1.000000  1.000000  1.000000  1.000000  1.000000
                       1.000000  0.000000  0.000000  0.000000  0.000000  0.000000
                       0.000000  0.000000  0.000000  0.000000  0.000000  0.000000
                       0.000000  0.000000  0.000000  0.000000  0.000000  0.000000
                       0.000000  0.000000  0.000000  0.000000  0.000000  0.000000
                       0.000000  0.000000  0.000000  0.000000  0.000000  0.000000
                       0.000000  0.000000  0.000000  0.000000  0.000000  0.000000
                       0.000000  0.000000  0.000000  0.000000  0.000000  0.000000
                       0.000000  0.000000  0.000000  0.000000  0.000000  0.000000
                       1.000000  1.000000  1.000000  1.000000  1.000000  1.000000
                       1.000000  1.000000  1.000000  1.000000  1.000000  1.000000
                       1.000000  1.000000  1.000000  1.000000  1.000000  1.000000
                       1.000000  1.000000  1.000000  1.000000  1.000000  1.000000
                       1.000000  1.000000  1.000000  1.000000  1.000000  1.000000
                       1.000000  1.000000  1.000000  1.000000  1.000000  1.000000
                       1.000000  1.000000  1.000000  1.000000  1.000000  1.000000
                       1.000000  1.000000  1.000000  1.000000  1.000000  1.000000
                       1.000000  1.000000  1.000000  1.000000  1.000000  1.000000
                       1.000000  1.000000  1.000000  1.000000  1.000000  1.000000
                       1.000000  1.000000  1.000000  1.000000  1.000000  1.000000
                       1.000000  1.000000  1.000000  1.000000  1.000000  1.000000
                       1.000000  1.000000  1.000000  1.000000  1.000000  1.000000
                       1.000000  1.000000  1.000000  1.000000  1.000000  1.000000
                       1.000000  1.000000  1.000000  1.000000  1.000000  1.000000
                       1.000000  1.000000  1.000000  1.000000  1.000000  1.000000
                       1.000000  1.000000  1.000000  1.000000  1.000000  1.000000
                       1.000000  0.000000  0.000000  0.000000  0.000000  0.000000
                       0.000000  0.000000  0.000000  0.000000  0.000000  0.000000
                       0.000000  0.000000  0.000000  0.000000  0.000000  0.000000
                       0.000000  0.000000  0.000000  0.000000  0.000000  0.000000
                       0.000000  0.000000  0.000000  0.000000  0.000000  0.000000
                       0.000000  0.000000  0.000000  0.000000  0.000000  0.000000
                       0.000000  0.000000  0.000000  0.000000  0.000000  0.000000
                       0.000000  0.000000  0.000000  0.000000  0.000000  0.000000
                       1.000000  1.000000  1.000000  1.000000  1.000000  1.000000
                       1.000000  1.000000  1.000000  1.000000  1.000000  1.000000
                       1.000000  1.000000  1.000000  1.000000  1.000000  1.000000
                       1.000000  1.000000  1.000000  1.000000  1.000000  1.000000
                       1.000000  1.000000  1.000000  1.000000  1.000000  1.000000
                       1.000000  1.000000  1.000000  1.000000  1.000000  1.000000
                       1.000000  1.000000  1.000000  1.000000  1.000000  1.000000
                       1.000000  1.000000  1.000000  1.000000  1.000000  1.000000
                       1.000000  1.000000  1.000000  1.000000  1.000000  1.000000
                       1.000000  1.000000  1.000000  1.000000  1.000000  1.000000
                       1.000000  1.000000  1.000000  1.000000  1.000000  1.000000
                       1.000000  1.000000  1.000000  1.000000  1.000000  1.000000
                       1.000000  1.000000  1.000000  1.000000  1.000000  1.000000
                       1.000000  1.000000  1.000000  1.000000  1.000000  1.000000
                       1.000000  1.000000  1.000000  1.000000  1.000000  1.000000
                       1.000000  1.000000  1.000000  1.000000  1.000000  1.000000
                       1.000000  1.000000  1.000000  1.000000  1.000000  1.000000
                       1.000000  0.000000  0.000000  0.000000  0.000000  0.000000
                       0.000000  0.000000  0.000000  0.000000  0.000000  0.000000
                       0.000000  0.000000  0.000000  0.000000  0.000000  0.000000
                       0.000000  0.000000  0.000000  0.000000  0.000000  0.000000
                       0.000000  0.000000  0.000000  0.000000  0.000000  0.000000
                       0.000000  0.000000  0.000000  0.000000  0.000000  0.000000
                       0.000000  0.000000  0.000000  0.000000  0.000000  0.000000
                       0.000000  0.000000  0.000000  0.000000  0.000000  0.000000
                       1.000000  1.000000  1.000000  1.000000  1.000000  1.000000
                       1.000000  1.000000  1.000000  1.000000  1.000000  1.000000
                       1.000000  1.000000  1.000000  1.000000  1.000000  1.000000
                       1.000000  1.000000  1.000000  1.000000  1.000000  1.000000
                       1.000000  1.000000  1.000000  1.000000  1.000000  1.000000
                       1.000000  1.000000  1.000000  1.000000  1.000000  1.000000
                       1.000000  1.000000  1.000000  1.000000  1.000000  1.000000
                       1.000000  1.000000  1.000000  1.000000  1.000000  1.000000
                       1.000000  1.000000  1.000000  1.000000  1.000000  1.000000
                       1.000000  1.000000  1.000000  1.000000  1.000000  1.000000
                       1.000000  1.000000  1.000000  1.000000  1.000000  1.000000
                       1.000000  1.000000  1.000000  1.000000  1.000000  1.000000
                       1.000000  1.000000  1.000000  1.000000  1.000000  1.000000
                       1.000000  1.000000  1.000000  1.000000  1.000000  1.000000
                       1.000000  1.000000  1.000000  1.000000  1.000000  1.000000
                       1.000000  1.000000  1.000000  1.000000  1.000000  1.000000
                       1.000000  1.000000  1.000000  1.000000  1.000000  1.000000
                       1.000000  0.000000  0.000000  0.000000  0.000000  0.000000
                       0.000000  0.000000  0.000000  0.000000  0.000000  0.000000
                       0.000000  0.000000  0.000000  0.000000  0.000000  0.000000
                       0.000000  0.000000  0.000000  0.000000  0.000000  0.000000
                       0.000000  0.000000  0.000000  0.000000  0.000000  0.000000
                       0.000000  0.000000  0.000000  0.000000  0.000000  0.000000
                       0.000000  0.000000  0.000000  0.000000  0.000000  0.000000
                       0.000000  0.000000  0.000000  0.000000  0.000000  0.000000
                       1.000000  1.000000  1.000000  1.000000  1.000000  1.000000
                       1.000000  1.000000  1.000000  1.000000  1.000000  1.000000
                       1.000000  1.000000  1.000000  1.000000  1.000000  1.000000
                       1.000000  1.000000  1.000000  1.000000  1.000000  1.000000
                       1.000000  1.000000  1.000000  1.000000  1.000000  1.000000
                       1.000000  1.000000  1.000000  1.000000  1.000000  1.000000
                       1.000000  1.000000  1.000000  1.000000  1.000000  1.000000
                       1.000000  1.000000  1.000000  1.000000  1.000000  1.000000
                       1.000000  1.000000  1.000000  1.000000  1.000000  1.000000
                       1.000000  1.000000  1.000000  1.000000  1.000000  1.000000
                       1.000000  1.000000  1.000000  1.000000  1.000000  1.000000
                       1.000000  1.000000  1.000000  1.000000  1.000000  1.000000
                       1.000000  1.000000  1.000000  1.000000  1.000000  1.000000
                       1.000000  1.000000  1.000000  1.000000  1.000000  1.000000
                       1.000000  1.000000  1.000000  1.000000  1.000000  1.000000
                       1.000000  1.000000  1.000000  1.000000  1.000000  1.000000
                       1.000000  1.000000  1.000000  1.000000  1.000000  1.000000
                       1.000000  0.000000  0.000000  0.000000  0.000000  0.000000
                       0.000000  0.000000  0.000000  0.000000  0.000000  0.000000
                       0.000000  0.000000  0.000000  0.000000  0.000000  0.000000
                       0.000000  0.000000  0.000000  0.000000  0.000000  0.000000
                       0.000000  0.000000  0.000000  0.000000  0.000000  0.000000
                       0.000000  0.000000  0.000000  0.000000  0.000000  0.000000
                       0.000000  0.000000  0.000000  0.000000  0.000000  0.000000
                       0.000000  0.000000  0.000000  0.000000  0.000000  0.000000
                       1.000000  1.000000  1.000000  1.000000  1.000000  1.000000
                       1.000000  1.000000  1.000000  1.000000  1.000000  1.000000
                       1.000000  1.000000  1.000000  1.000000  1.000000  1.000000
                       1.000000  1.000000  1.000000  1.000000  1.000000  1.000000
                       1.000000  1.000000  1.000000  1.000000  1.000000  1.000000
                       1.000000  1.000000  1.000000  1.000000  1.000000  1.000000
                       1.000000  1.000000  1.000000  1.000000  1.000000  1.000000
                       1.000000  1.000000  1.000000  1.000000  1.000000  1.000000
                       1.000000  1.000000  1.000000  1.000000  1.000000  1.000000
                       1.000000  1.000000  1.000000  1.000000  1.000000  1.000000
                       1.000000  1.000000  1.000000  1.000000  1.000000  1.000000
                       1.000000  1.000000  1.000000  1.000000  1.000000  1.000000
                       1.000000  1.000000  1.000000  1.000000  1.000000  1.000000
                       1.000000  1.000000  1.000000  1.000000  1.000000  1.000000
                       1.000000  1.000000  1.000000  1.000000  1.000000  1.000000
                       1.000000  1.000000  1.000000  1.000000  1.000000  1.000000
                       1.000000  1.000000  1.000000  1.000000  1.000000  1.000000
                       1.000000  0.000000  0.000000  0.000000  0.000000  0.000000
                       0.000000  0.000000  0.000000  0.000000  0.000000  0.000000
                       0.000000  0.000000  0.000000  0.000000  0.000000  0.000000
                       0.000000  0.000000  0.000000  0.000000  0.000000  0.000000
                       0.000000  0.000000  0.000000  0.000000  0.000000  0.000000
                       0.000000  0.000000  0.000000  0.000000  0.000000  0.000000
                       0.000000  0.000000  0.000000  0.000000  0.000000  0.000000
                       0.000000  0.000000  0.000000  0.000000  0.000000  0.000000
                       1.000000  1.000000  1.000000  1.000000  1.000000  1.000000
                       1.000000  1.000000  1.000000  1.000000  1.000000  1.000000
                       1.000000  1.000000  1.000000  1.000000  1.000000  1.000000
                       1.000000  1.000000  1.000000  1.000000  1.000000  1.000000
                       1.000000  1.000000  1.000000  1.000000  1.000000  1.000000
                       1.000000  1.000000  1.000000  1.000000  1.000000  1.000000
                       1.000000  1.000000  1.000000  1.000000  1.000000  1.000000
                       1.000000  1.000000  1.000000  1.000000  1.000000  1.000000
                       1.000000  1.000000  1.000000  1.000000  1.000000  1.000000
                       1.000000  1.000000  1.000000  1.000000  1.000000  1.000000
                       1.000000  1.000000  1.000000  1.000000  1.000000  1.000000
                       1.000000  1.000000  1.000000  1.000000  1.000000  1.000000
                       1.000000  1.000000  1.000000  1.000000  1.000000  1.000000
                       1.000000  1.000000  1.000000  1.000000  1.000000  1.000000
                       1.000000  1.000000  1.000000  1.000000  1.000000  1.000000
                       1.000000  1.000000  1.000000  1.000000  1.000000  1.000000
                       1.000000  1.000000  1.000000  1.000000  1.000000  1.000000
                       1.000000  0.000000  0.000000  0.000000  0.000000  0.000000
                       0.000000  0.000000  0.000000  0.000000  0.000000  0.000000
                       0.000000  0.000000  0.000000  0.000000  0.000000  0.000000
                       0.000000  0.000000  0.000000  0.000000  0.000000  0.000000
                       0.000000  0.000000  0.000000  0.000000  0.000000  0.000000
                       0.000000  0.000000  0.000000  0.000000  0.000000  0.000000
                       0.000000  0.000000  0.000000  0.000000  0.000000  0.000000
                       0.000000  0.000000  0.000000  0.000000  0.000000  0.000000
                       1.000000  1.000000  1.000000  1.000000  1.000000  1.000000
                       1.000000  1.000000  1.000000  1.000000  1.000000  1.000000
                       1.000000  1.000000  1.000000  1.000000  1.000000  1.000000
                       1.000000  1.000000  1.000000  1.000000  1.000000  1.000000
                       1.000000  1.000000  1.000000  1.000000  1.000000  1.000000
                       1.000000  1.000000  1.000000  1.000000  1.000000  1.000000
                       1.000000  1.000000  1.000000  1.000000  1.000000  1.000000
                       1.000000  1.000000  1.000000  1.000000  1.000000  1.000000
                       1.000000  1.000000  1.000000  1.000000  1.000000  1.000000
                       1.000000  1.000000  1.000000  1.000000  1.000000  1.000000
                       1.000000  1.000000  1.000000  1.000000  1.000000  1.000000
                       1.000000  1.000000  1.000000  1.000000  1.000000  1.000000
                       1.000000  1.000000  1.000000  1.000000  1.000000  1.000000
                       1.000000  1.000000  1.000000  1.000000  1.000000  1.000000
                       1.000000  1.000000  1.000000  1.000000  1.000000  1.000000
                       1.000000  1.000000  1.000000  1.000000  1.000000  1.000000
                       1.000000  1.000000  1.000000  1.000000  1.000000  1.000000
                       1.000000  0.000000  0.000000  0.000000  0.000000  0.000000
                       0.000000  0.000000  0.000000  0.000000  0.000000  0.000000
                       0.000000  0.000000  0.000000  0.000000  0.000000  0.000000
                       0.000000  0.000000  0.000000  0.000000  0.000000  0.000000
                       0.000000  0.000000  0.000000  0.000000  0.000000  0.000000
                       0.000000  0.000000  0.000000  0.000000  0.000000  0.000000
                       0.000000  0.000000  0.000000  0.000000  0.000000  0.000000
                       0.000000  0.000000  0.000000  0.000000  0.000000  0.000000
                       1.000000  1.000000  1.000000  1.000000  1.000000  1.000000
                       1.000000  1.000000  1.000000  1.000000  1.000000  1.000000
                       1.000000  1.000000  1.000000  1.000000  1.000000  1.000000
                       1.000000  1.000000  1.000000  1.000000  1.000000  1.000000
                       1.000000  1.000000  1.000000  1.000000  1.000000  1.000000
                       1.000000  1.000000  1.000000  1.000000  1.000000  1.000000
                       1.000000  1.000000  1.000000  1.000000  1.000000  1.000000
                       1.000000  1.000000  1.000000  1.000000  1.000000  1.000000
                       1.000000  1.000000  1.000000  1.000000  1.000000  1.000000
                       1.000000  1.000000  1.000000  1.000000  1.000000  1.000000
                       1.000000  1.000000  1.000000  1.000000  1.000000  1.000000
                       1.000000  1.000000  1.000000  1.000000  1.000000  1.000000
                       1.000000  1.000000  1.000000  1.000000  1.000000  1.000000
                       1.000000  1.000000  1.000000  1.000000  1.000000  1.000000
                       1.000000  1.000000  1.000000  1.000000  1.000000  1.000000
                       1.000000  1.000000  1.000000  1.000000  1.000000  1.000000
                       1.000000  1.000000  1.000000  1.000000  1.000000  1.000000
                       1.000000  0.000000  0.000000  0.000000  0.000000  0.000000
                       0.000000  0.000000  0.000000  0.000000  0.000000  0.000000
                       0.000000  0.000000  0.000000  0.000000  0.000000  0.000000
                       0.000000  0.000000  0.000000  0.000000  0.000000  0.000000
                       0.000000  0.000000  0.000000  0.000000  0.000000  0.000000
                       0.000000  0.000000  0.000000  0.000000  0.000000  0.000000
                       0.000000  0.000000  0.000000  0.000000  0.000000  0.000000
                       0.000000  0.000000  0.000000  0.000000  0.000000  0.000000
                       1.000000  1.000000  1.000000  1.000000  1.000000  1.000000
                       1.000000  1.000000  1.000000  1.000000  1.000000  1.000000
                       1.000000  1.000000  1.000000  1.000000  1.000000  1.000000
                       1.000000  1.000000  1.000000  1.000000  1.000000  1.000000
                       1.000000  1.000000  1.000000  1.000000  1.000000  1.000000
                       1.000000  1.000000  1.000000  1.000000  1.000000  1.000000
                       1.000000  1.000000  1.000000  1.000000  1.000000  1.000000
                       1.000000  1.000000  1.000000  1.000000  1.000000  1.000000
                       1.000000  1.000000  1.000000  1.000000  1.000000  1.000000
                       1.000000  1.000000  1.000000  1.000000  1.000000  1.000000
                       1.000000  1.000000  1.000000  1.000000  1.000000  1.000000
                       1.000000  1.000000  1.000000  1.000000  1.000000  1.000000
                       1.000000  1.000000  1.000000  1.000000  1.000000  1.000000
                       1.000000  1.000000  1.000000  1.000000  1.000000  1.000000
                       1.000000  1.000000  1.000000  1.000000  1.000000  1.000000
                       1.000000  1.000000  1.000000  1.000000  1.000000  1.000000
                       1.000000  1.000000  1.000000  1.000000  1.000000  1.000000
                       1.000000  0.000000  0.000000  0.000000  0.000000  0.000000
                       0.000000  0.000000  0.000000  0.000000  0.000000  0.000000
                       0.000000  0.000000  0.000000  0.000000  0.000000  0.000000
                       0.000000  0.000000  0.000000  0.000000  0.000000  0.000000
                       0.000000  0.000000  0.000000  0.000000  0.000000  0.000000
                       0.000000  0.000000  0.000000  0.000000  0.000000  0.000000
                       0.000000  0.000000  0.000000  0.000000  0.000000  0.000000
                       0.000000  0.000000  0.000000  0.000000  0.000000  0.000000
                       1.000000  1.000000  1.000000  1.000000  1.000000  1.000000
                       1.000000  1.000000  1.000000  1.000000  1.000000  1.000000
                       1.000000  1.000000  1.000000  1.000000  1.000000  1.000000
                       1.000000  1.000000  1.000000  1.000000  1.000000  1.000000
                       1.000000  1.000000  1.000000  1.000000  1.000000  1.000000
                       1.000000  1.000000  1.000000  1.000000  1.000000  1.000000
                       1.000000  1.000000  1.000000  1.000000  1.000000  1.000000
                       1.000000  1.000000  1.000000  1.000000  1.000000  1.000000
                       1.000000  1.000000  1.000000  1.000000  1.000000  1.000000
                       1.000000  1.000000  1.000000  1.000000  1.000000  1.000000
                       1.000000  1.000000  1.000000  1.000000  1.000000  1.000000
                       1.000000  1.000000  1.000000  1.000000  1.000000  1.000000
                       1.000000  1.000000  1.000000  1.000000  1.000000  1.000000
                       1.000000  1.000000  1.000000  1.000000  1.000000  1.000000
                       1.000000  1.000000  1.000000  1.000000  1.000000  1.000000
                       1.000000  1.000000  1.000000  1.000000  1.000000  1.000000
                       1.000000  1.000000  1.000000  1.000000  1.000000  1.000000
                       1.000000  0.000000  0.000000  0.000000  0.000000  0.000000
                       0.000000  0.000000  0.000000  0.000000  0.000000  0.000000
                       0.000000  0.000000  0.000000  0.000000  0.000000  0.000000
                       0.000000  0.000000  0.000000  0.000000  0.000000  0.000000
                       0.000000  0.000000  0.000000  0.000000  0.000000  0.000000
                       0.000000  0.000000  0.000000  0.000000  0.000000  0.000000
                       0.000000  0.000000  0.000000  0.000000  0.000000  0.000000
                       0.000000  0.000000  0.000000  0.000000  0.000000  0.000000
                       1.000000  1.000000  1.000000  1.000000  1.000000  1.000000
                       1.000000  1.000000  1.000000  1.000000  1.000000  1.000000
                       1.000000  1.000000  1.000000  1.000000  1.000000  1.000000
                       1.000000  1.000000  1.000000  1.000000  1.000000  1.000000
                       1.000000  1.000000  1.000000  1.000000  1.000000  1.000000
                       1.000000  1.000000  1.000000  1.000000  1.000000  1.000000
                       1.000000  1.000000  1.000000  1.000000  1.000000  1.000000
                       1.000000  1.000000  1.000000  1.000000  1.000000  1.000000
                       1.000000  1.000000  1.000000  1.000000  1.000000  1.000000
                       1.000000  1.000000  1.000000  1.000000  1.000000  1.000000
                       1.000000  1.000000  1.000000  1.000000  1.000000  1.000000
                       1.000000  1.000000  1.000000  1.000000  1.000000  1.000000
                       1.000000  1.000000  1.000000  1.000000  1.000000  1.000000
                       1.000000  1.000000  1.000000  1.000000  1.000000  1.000000
                       1.000000  1.000000  1.000000  1.000000  1.000000  1.000000
                       1.000000  1.000000  1.000000  1.000000  1.000000  1.000000
                       1.000000  1.000000  1.000000  1.000000  1.000000  1.000000
                       1.000000  0.000000  0.000000  0.000000  0.000000  0.000000
                       0.000000  0.000000  0.000000  0.000000  0.000000  0.000000
                       0.000000  0.000000  0.000000  0.000000  0.000000  0.000000
                       0.000000  0.000000  0.000000  0.000000  0.000000  0.000000
                       0.000000  0.000000  0.000000  0.000000  0.000000  0.000000
                       0.000000  0.000000  0.000000  0.000000  0.000000  0.000000
                       0.000000  0.000000  0.000000  0.000000  0.000000  0.000000
                       0.000000  0.000000  0.000000  0.000000  0.000000  0.000000
                       1.000000  1.000000  1.000000  1.000000  1.000000  1.000000
                       1.000000  1.000000  1.000000  1.000000  1.000000  1.000000
                       1.000000  1.000000  1.000000  1.000000  1.000000  1.000000
                       1.000000  1.000000  1.000000  1.000000  1.000000  1.000000
                       1.000000  1.000000  1.000000  1.000000  1.000000  1.000000
                       1.000000  1.000000  1.000000  1.000000  1.000000  1.000000
                       1.000000  1.000000  1.000000  1.000000  1.000000  1.000000
                       1.000000  1.000000  1.000000  1.000000  1.000000  1.000000
                       1.000000  1.000000  1.000000  1.000000  1.000000  1.000000
                       1.000000  1.000000  1.000000  1.000000  1.000000  1.000000
                       1.000000  1.000000  1.000000  1.000000  1.000000  1.000000
                       1.000000  1.000000  1.000000  1.000000  1.000000  1.000000
                       1.000000  1.000000  1.000000  1.000000  1.000000  1.000000
                       1.000000  1.000000  1.000000  1.000000  1.000000  1.000000
                       1.000000  1.000000  1.000000  1.000000  1.000000  1.000000
                       1.000000  1.000000  1.000000  1.000000  1.000000  1.000000
                       1.000000  1.000000  1.000000  1.000000  1.000000  1.000000
                       1.000000  0.000000  0.000000  0.000000  0.000000  0.000000
                       0.000000  0.000000  0.000000  0.000000  0.000000  0.000000
                       0.000000  0.000000  0.000000  0.000000  0.000000  0.000000
                       0.000000  0.000000  0.000000  0.000000  0.000000  0.000000
                       0.000000  0.000000  0.000000  0.000000  0.000000  0.000000
                       0.000000  0.000000  0.000000  0.000000  0.000000  0.000000
                       0.000000  0.000000  0.000000  0.000000  0.000000  0.000000
                       0.000000  0.000000  0.000000  0.000000  0.000000  0.000000
                       1.000000  1.000000  1.000000  1.000000  1.000000  1.000000
                       1.000000  1.000000  1.000000  1.000000  1.000000  1.000000
                       1.000000  1.000000  1.000000  1.000000  1.000000  1.000000
                       1.000000  1.000000  1.000000  1.000000  1.000000  1.000000
                       1.000000  1.000000  1.000000  1.000000  1.000000  1.000000
                       1.000000  1.000000  1.000000  1.000000  1.000000  1.000000
                       1.000000  1.000000  1.000000  1.000000  1.000000  1.000000
                       1.000000  1.000000  1.000000  1.000000  1.000000  1.000000
                       1.000000  1.000000  1.000000  1.000000  1.000000  1.000000
                       1.000000  1.000000  1.000000  1.000000  1.000000  1.000000
                       1.000000  1.000000  1.000000  1.000000  1.000000  1.000000
                       1.000000  1.000000  1.000000  1.000000  1.000000  1.000000
                       1.000000  1.000000  1.000000  1.000000  1.000000  1.000000
                       1.000000  1.000000  1.000000  1.000000  1.000000  1.000000
                       1.000000  1.000000  1.000000  1.000000  1.000000  1.000000
                       1.000000  1.000000  1.000000  1.000000  1.000000  1.000000
                       1.000000  1.000000  1.000000  1.000000  1.000000  1.000000
                       1.000000  0.000000  0.000000  0.000000  0.000000  0.000000
                       0.000000  0.000000  0.000000  0.000000  0.000000  0.000000
                       0.000000  0.000000  0.000000  0.000000  0.000000  0.000000
                       0.000000  0.000000  0.000000  0.000000  0.000000  0.000000
                       0.000000  0.000000  0.000000  0.000000  0.000000  0.000000
                       0.000000  0.000000  0.000000  0.000000  0.000000  0.000000
                       0.000000  0.000000  0.000000  0.000000  0.000000  0.000000
                       0.000000  0.000000  0.000000  0.000000  0.000000  0.000000
                       1.000000  1.000000  1.000000  1.000000  1.000000  1.000000
                       1.000000  1.000000  1.000000  1.000000  1.000000  1.000000
                       1.000000  1.000000  1.000000  1.000000  1.000000  1.000000
                       1.000000  1.000000  1.000000  1.000000  1.000000  1.000000
                       1.000000  1.000000  1.000000  1.000000  1.000000  1.000000
                       1.000000  1.000000  1.000000  1.000000  1.000000  1.000000
                       1.000000  1.000000  1.000000  1.000000  1.000000  1.000000
                       1.000000  1.000000  1.000000  1.000000  1.000000  1.000000
                       1.000000  1.000000  1.000000  1.000000  1.000000  1.000000
                       1.000000  1.000000  1.000000  1.000000  1.000000  1.000000
                       1.000000  1.000000  1.000000  1.000000  1.000000  1.000000
                       1.000000  1.000000  1.000000  1.000000  1.000000  1.000000
                       1.000000  1.000000  1.000000  1.000000  1.000000  1.000000
                       1.000000  1.000000  1.000000  1.000000  1.000000  1.000000
                       1.000000  1.000000  1.000000  1.000000  1.000000  1.000000
                       1.000000  1.000000  1.000000  1.000000  1.000000  1.000000
                       1.000000  1.000000  1.000000  1.000000  1.000000  1.000000
                       1.000000  0.000000  0.000000  0.000000  0.000000  0.000000
                       0.000000  0.000000  0.000000  0.000000  0.000000  0.000000
                       0.000000  0.000000  0.000000  0.000000  0.000000  0.000000
                       0.000000  0.000000  0.000000  0.000000  0.000000  0.000000
                       0.000000  0.000000  0.000000  0.000000  0.000000  0.000000
                       0.000000  0.000000  0.000000  0.000000  0.000000  0.000000
                       0.000000  0.000000  0.000000  0.000000  0.000000  0.000000
                       0.000000  0.000000  0.000000  0.000000  0.000000  0.000000
                       1.000000  1.000000  1.000000  1.000000  1.000000  1.000000
                       1.000000  1.000000  1.000000  1.000000  1.000000  1.000000
                       1.000000  1.000000  1.000000  1.000000  1.000000  1.000000
                       1.000000  1.000000  1.000000  1.000000  1.000000  1.000000
                       1.000000  1.000000  1.000000  1.000000  1.000000  1.000000
                       1.000000  1.000000  1.000000  1.000000  1.000000  1.000000
                       1.000000  1.000000  1.000000  1.000000  1.000000  1.000000
                       1.000000  1.000000  1.000000  1.000000  1.000000  1.000000
                       1.000000  1.000000  1.000000  1.000000  1.000000  1.000000
                       1.000000  1.000000  1.000000  1.000000  1.000000  1.000000
                       1.000000  1.000000  1.000000  1.000000  1.000000  1.000000
                       1.000000  1.000000  1.000000  1.000000  1.000000  1.000000
                       1.000000  1.000000  1.000000  1.000000  1.000000  1.000000
                       1.000000  1.000000  1.000000  1.000000  1.000000  1.000000
                       1.000000  1.000000  1.000000  1.000000  1.000000  1.000000
                       1.000000  1.000000  1.000000  1.000000  1.000000  1.000000
                       1.000000  1.000000  1.000000  1.000000  1.000000  1.000000
                       1.000000  0.000000  0.000000  0.000000  0.000000  0.000000
                       0.000000  0.000000  0.000000  0.000000  0.000000  0.000000
                       0.000000  0.000000  0.000000  0.000000  0.000000  0.000000
                       0.000000  0.000000  0.000000  0.000000  0.000000  0.000000
                       0.000000  0.000000  0.000000  0.000000  0.000000  0.000000
                       0.000000  0.000000  0.000000  0.000000  0.000000  0.000000
                       0.000000  0.000000  0.000000  0.000000  0.000000  0.000000
                       0.000000  0.000000  0.000000  0.000000  0.000000  0.000000
                       1.000000  1.000000  1.000000  1.000000  1.000000  1.000000
                       1.000000  1.000000  1.000000  1.000000  1.000000  1.000000
                       1.000000  1.000000  1.000000  1.000000  1.000000  1.000000
                       1.000000  1.000000  1.000000  1.000000  1.000000  1.000000
                       1.000000  1.000000  1.000000  1.000000  1.000000  1.000000
                       1.000000  1.000000  1.000000  1.000000  1.000000  1.000000
                       1.000000  1.000000  1.000000  1.000000  1.000000  1.000000
                       1.000000  1.000000  1.000000  1.000000  1.000000  1.000000
                       1.000000  1.000000  1.000000  1.000000  1.000000  1.000000
                       1.000000  1.000000  1.000000  1.000000  1.000000  1.000000
                       1.000000  1.000000  1.000000  1.000000  1.000000  1.000000
                       1.000000  1.000000  1.000000  1.000000  1.000000  1.000000
                       1.000000  1.000000  1.000000  1.000000  1.000000  1.000000
                       1.000000  1.000000  1.000000  1.000000  1.000000  1.000000
                       1.000000  1.000000  1.000000  1.000000  1.000000  1.000000
                       1.000000  1.000000  1.000000  1.000000  1.000000  1.000000
                       1.000000  1.000000  1.000000  1.000000  1.000000  1.000000
                       1.000000  0.000000  0.000000  0.000000  0.000000  0.000000
                       0.000000  0.000000  0.000000  0.000000  0.000000  0.000000
                       0.000000  0.000000  0.000000  0.000000  0.000000  0.000000
                       0.000000  0.000000  0.000000  0.000000  0.000000  0.000000
                       0.000000  0.000000  0.000000  0.000000  0.000000  0.000000
                       0.000000  0.000000  0.000000  0.000000  0.000000  0.000000
                       0.000000  0.000000  0.000000  0.000000  0.000000  0.000000
                       0.000000  0.000000  0.000000  0.000000  0.000000  0.000000
                       1.000000  1.000000  1.000000  1.000000  1.000000  1.000000
                       1.000000  1.000000  1.000000  1.000000  1.000000  1.000000
                       1.000000  1.000000  1.000000  1.000000  1.000000  1.000000
                       1.000000  1.000000  1.000000  1.000000  1.000000  1.000000
                       1.000000  1.000000  1.000000  1.000000  1.000000  1.000000
                       1.000000  1.000000  1.000000  1.000000  1.000000  1.000000
                       1.000000  1.000000  1.000000  1.000000  1.000000  1.000000
                       1.000000  1.000000  1.000000  1.000000  1.000000  1.000000
                       1.000000  1.000000  1.000000  1.000000  1.000000  1.000000
                       1.000000  1.000000  1.000000  1.000000  1.000000  1.000000
                       1.000000  1.000000  1.000000  1.000000  1.000000  1.000000
                       1.000000  1.000000  1.000000  1.000000  1.000000  1.000000
                       1.000000  1.000000  1.000000  1.000000  1.000000  1.000000
                       1.000000  1.000000  1.000000  1.000000  1.000000  1.000000
                       1.000000  1.000000  1.000000  1.000000  1.000000  1.000000
                       1.000000  1.000000  1.000000  1.000000  1.000000  1.000000
                       1.000000  1.000000  1.000000  1.000000  1.000000  1.000000
                       1.000000  0.000000  0.000000  0.000000  0.000000  0.000000
                       0.000000  0.000000  0.000000  0.000000  0.000000  0.000000
                       0.000000  0.000000  0.000000  0.000000  0.000000  0.000000
                       0.000000  0.000000  0.000000  0.000000  0.000000  0.000000
                       0.000000  0.000000  0.000000  0.000000  0.000000  0.000000
                       0.000000  0.000000  0.000000  0.000000  0.000000  0.000000
                       0.000000  0.000000  0.000000  0.000000  0.000000  0.000000
                       0.000000  0.000000  0.000000  0.000000  0.000000  0.000000
                       1.000000  1.000000  1.000000  1.000000  1.000000  1.000000
                       1.000000  1.000000  1.000000  1.000000  1.000000  1.000000
                       1.000000  1.000000  1.000000  1.000000  1.000000  1.000000
                       1.000000  1.000000  1.000000  1.000000  1.000000  1.000000
                       1.000000  1.000000  1.000000  1.000000  1.000000  1.000000
                       1.000000  1.000000  1.000000  1.000000  1.000000  1.000000
                       1.000000  1.000000  1.000000  1.000000  1.000000  1.000000
                       1.000000  1.000000  1.000000  1.000000  1.000000  1.000000
                       1.000000  1.000000  1.000000  1.000000  1.000000  1.000000
                       1.000000  1.000000  1.000000  1.000000  1.000000  1.000000
                       1.000000  1.000000  1.000000  1.000000  1.000000  1.000000
                       1.000000  1.000000  1.000000  1.000000  1.000000  1.000000
                       1.000000  1.000000  1.000000  1.000000  1.000000  1.000000
                       1.000000  1.000000  1.000000  1.000000  1.000000  1.000000
                       1.000000  1.000000  1.000000  1.000000  1.000000  1.000000
                       1.000000  1.000000  1.000000  1.000000  1.000000  1.000000
                       1.000000  1.000000  1.000000  1.000000  1.000000  1.000000
                       1.000000  0.000000  0.000000  0.000000  0.000000  0.000000
                       0.000000  0.000000  0.000000  0.000000  0.000000  0.000000
                       0.000000  0.000000  0.000000  0.000000  0.000000  0.000000
                       0.000000  0.000000  0.000000  0.000000  0.000000  0.000000
                       0.000000  0.000000  0.000000  0.000000  0.000000  0.000000
                       0.000000  0.000000  0.000000  0.000000  0.000000  0.000000
                       0.000000  0.000000  0.000000  0.000000  0.000000  0.000000
                       0.000000  0.000000  0.000000  0.000000  0.000000  0.000000
                       1.000000  1.000000  1.000000  1.000000  1.000000  1.000000
                       1.000000  1.000000  1.000000  1.000000  1.000000  1.000000
                       1.000000  1.000000  1.000000  1.000000  1.000000  1.000000
                       1.000000  1.000000  1.000000  1.000000  1.000000  1.000000
                       1.000000  1.000000  1.000000  1.000000  1.000000  1.000000
                       1.000000  1.000000  1.000000  1.000000  1.000000  1.000000
                       1.000000  1.000000  1.000000  1.000000  1.000000  1.000000
                       1.000000  1.000000  1.000000  1.000000  1.000000  1.000000
                       1.000000  1.000000  1.000000  1.000000  1.000000  1.000000
                       1.000000  1.000000  1.000000  1.000000  1.000000  1.000000
                       1.000000  1.000000  1.000000  1.000000  1.000000  1.000000
                       1.000000  1.000000  1.000000  1.000000  1.000000  1.000000
                       1.000000  1.000000  1.000000  1.000000  1.000000  1.000000
                       1.000000  1.000000  1.000000  1.000000  1.000000  1.000000
                       1.000000  1.000000  1.000000  1.000000  1.000000  1.000000
                       1.000000  1.000000  1.000000  1.000000  1.000000  1.000000
                       1.000000  1.000000  1.000000  1.000000  1.000000  1.000000
                       1.000000  0.000000  0.000000  0.000000  0.000000  0.000000
                       0.000000  0.000000  0.000000  0.000000  0.000000  0.000000
                       0.000000  0.000000  0.000000  0.000000  0.000000  0.000000
                       0.000000  0.000000  0.000000  0.000000  0.000000  0.000000
                       0.000000  0.000000  0.000000  0.000000  0.000000  0.000000
                       0.000000  0.000000  0.000000  0.000000  0.000000  0.000000
                       0.000000  0.000000  0.000000  0.000000  0.000000  0.000000
                       0.000000  0.000000  0.000000  0.000000  0.000000  0.000000
                       1.000000  1.000000  1.000000  1.000000  1.000000  1.000000
                       1.000000  1.000000  1.000000  1.000000  1.000000  1.000000
                       1.000000  1.000000  1.000000  1.000000  1.000000  1.000000
                       1.000000  1.000000  1.000000  1.000000  1.000000  1.000000
                       1.000000  1.000000  1.000000  1.000000  1.000000  1.000000
                       1.000000  1.000000  1.000000  1.000000  1.000000  1.000000
                       1.000000  1.000000  1.000000  1.000000  1.000000  1.000000
                       1.000000  1.000000  1.000000  1.000000  1.000000  1.000000
                       1.000000  1.000000  1.000000  1.000000  1.000000  1.000000
                       1.000000  1.000000  1.000000  1.000000  1.000000  1.000000
                       1.000000  1.000000  1.000000  1.000000  1.000000  1.000000
                       1.000000  1.000000  1.000000  1.000000  1.000000  1.000000
                       1.000000  1.000000  1.000000  1.000000  1.000000  1.000000
                       1.000000  1.000000  1.000000  1.000000  1.000000  1.000000
                       1.000000  1.000000  1.000000  1.000000  1.000000  1.000000
                       1.000000  1.000000  1.000000  1.000000  1.000000  1.000000
                       1.000000  1.000000  1.000000  1.000000  1.000000  1.000000
                       1.000000  0.000000  0.000000  0.000000  0.000000  0.000000
                       0.000000  0.000000  0.000000  0.000000  0.000000  0.000000
                       0.000000  0.000000  0.000000  0.000000  0.000000  0.000000
                       0.000000  0.000000  0.000000  0.000000  0.000000  0.000000
                       0.000000  0.000000  0.000000  0.000000  0.000000  0.000000
                       0.000000  0.000000  0.000000  0.000000  0.000000  0.000000
                       0.000000  0.000000  0.000000  0.000000  0.000000  0.000000
                       0.000000  0.000000  0.000000  0.000000  0.000000  0.000000
                       1.000000  1.000000  1.000000  1.000000  1.000000  1.000000
                       1.000000  1.000000  1.000000  1.000000  1.000000  1.000000
                       1.000000  1.000000  1.000000  1.000000  1.000000  1.000000
                       1.000000  1.000000  1.000000  1.000000  1.000000  1.000000
                       1.000000  1.000000  1.000000  1.000000  1.000000  1.000000
                       1.000000  1.000000  1.000000  1.000000  1.000000  1.000000
                       1.000000  1.000000  1.000000  1.000000  1.000000  1.000000
                       1.000000  1.000000  1.000000  1.000000  1.000000  1.000000
                       1.000000  1.000000  1.000000  1.000000  1.000000  1.000000
                       1.000000  1.000000  1.000000  1.000000  1.000000  1.000000
                       1.000000  1.000000  1.000000  1.000000  1.000000  1.000000
                       1.000000  1.000000  1.000000  1.000000  1.000000  1.000000
                       1.000000  1.000000  1.000000  1.000000  1.000000  1.000000
                       1.000000  1.000000  1.000000  1.000000  1.000000  1.000000
                       1.000000  1.000000  1.000000  1.000000  1.000000  1.000000
                       1.000000  1.000000  1.000000  1.000000  1.000000  1.000000
                       1.000000  1.000000  1.000000  1.000000  1.000000  1.000000
                       1.000000  0.000000  0.000000  0.000000  0.000000  0.000000
                       0.000000  0.000000  0.000000  0.000000  0.000000  0.000000
                       0.000000  0.000000  0.000000  0.000000  0.000000  0.000000
                       0.000000  0.000000  0.000000  0.000000  0.000000  0.000000
                       0.000000  0.000000  0.000000  0.000000  0.000000  0.000000
                       0.000000  0.000000  0.000000  0.000000  0.000000  0.000000
                       0.000000  0.000000  0.000000  0.000000  0.000000  0.000000
                       0.000000  0.000000  0.000000  0.000000  0.000000  0.000000
                       1.000000  1.000000  1.000000  1.000000  1.000000  1.000000
                       1.000000  1.000000  1.000000  1.000000  1.000000  1.000000
                       1.000000  1.000000  1.000000  1.000000  1.000000  1.000000
                       1.000000  1.000000  1.000000  1.000000  1.000000  1.000000
                       1.000000  1.000000  1.000000  1.000000  1.000000  1.000000
                       1.000000  1.000000  1.000000  1.000000  1.000000  1.000000
                       1.000000  1.000000  1.000000  1.000000  1.000000  1.000000
                       1.000000  1.000000  1.000000  1.000000  1.000000  1.000000
                       1.000000  1.000000  1.000000  1.000000  1.000000  1.000000
                       1.000000  1.000000  1.000000  1.000000  1.000000  1.000000
                       1.000000  1.000000  1.000000  1.000000  1.000000  1.000000
                       1.000000  1.000000  1.000000  1.000000  1.000000  1.000000
                       1.000000  1.000000  1.000000  1.000000  1.000000  1.000000
                       1.000000  1.000000  1.000000  1.000000  1.000000  1.000000
                       1.000000  1.000000  1.000000  1.000000  1.000000  1.000000
                       1.000000  1.000000  1.000000  1.000000  1.000000  1.000000
                       1.000000  1.000000  1.000000  1.000000  1.000000  1.000000
                       1.000000  0.000000  0.000000  0.000000  0.000000  0.000000
                       0.000000  0.000000  0.000000  0.000000  0.000000  0.000000
                       0.000000  0.000000  0.000000  0.000000  0.000000  0.000000
                       0.000000  0.000000  0.000000  0.000000  0.000000  0.000000
                       0.000000  0.000000  0.000000  0.000000  0.000000  0.000000
                       0.000000  0.000000  0.000000  0.000000  0.000000  0.000000
                       0.000000  0.000000  0.000000  0.000000  0.000000  0.000000
                       0.000000  0.000000  0.000000  0.000000  0.000000  0.000000
                       1.000000  1.000000  1.000000  1.000000  1.000000  1.000000
                       1.000000  1.000000  1.000000  1.000000  1.000000  1.000000
                       1.000000  1.000000  1.000000  1.000000  1.000000  1.000000
                       1.000000  1.000000  1.000000  1.000000  1.000000  1.000000
                       1.000000  1.000000  1.000000  1.000000  1.000000  1.000000
                       1.000000  1.000000  1.000000  1.000000  1.000000  1.000000
                       1.000000  1.000000  1.000000  1.000000  1.000000  1.000000
                       1.000000  1.000000  1.000000  1.000000  1.000000  1.000000
                       1.000000  1.000000  1.000000  1.000000  1.000000  1.000000
                       1.000000  1.000000  1.000000  1.000000  1.000000  1.000000
                       1.000000  1.000000  1.000000  1.000000  1.000000  1.000000
                       1.000000  1.000000  1.000000  1.000000  1.000000  1.000000
                       1.000000  1.000000  1.000000  1.000000  1.000000  1.000000
                       1.000000  1.000000  1.000000  1.000000  1.000000  1.000000
                       1.000000  1.000000  1.000000  1.000000  1.000000  1.000000
                       1.000000  1.000000  1.000000  1.000000  1.000000  1.000000
                       1.000000  1.000000  1.000000  1.000000  1.000000  1.000000
                       1.000000  0.000000  0.000000  0.000000  0.000000  0.000000
                       0.000000  0.000000  0.000000  0.000000  0.000000  0.000000
                       0.000000  0.000000  0.000000  0.000000  0.000000  0.000000
                       0.000000  0.000000  0.000000  0.000000  0.000000  0.000000
                       0.000000  0.000000  0.000000  0.000000  0.000000  0.000000
                       0.000000  0.000000  0.000000  0.000000  0.000000  0.000000
                       0.000000  0.000000  0.000000  0.000000  0.000000  0.000000
                       0.000000  0.000000  0.000000  0.000000  0.000000  0.000000
                       1.000000  1.000000  1.000000  1.000000  1.000000  1.000000
                       1.000000  1.000000  1.000000  1.000000  1.000000  1.000000
                       1.000000  1.000000  1.000000  1.000000  1.000000  1.000000
                       1.000000  1.000000  1.000000  1.000000  1.000000  1.000000
                       1.000000  1.000000  1.000000  1.000000  1.000000  1.000000
                       1.000000  1.000000  1.000000  1.000000  1.000000  1.000000
                       1.000000  1.000000  1.000000  1.000000  1.000000  1.000000
                       1.000000  1.000000  1.000000  1.000000  1.000000  1.000000
                       1.000000  1.000000  1.000000  1.000000  1.000000  1.000000
                       1.000000  1.000000  1.000000  1.000000  1.000000  1.000000
                       1.000000  1.000000  1.000000  1.000000  1.000000  1.000000
                       1.000000  1.000000  1.000000  1.000000  1.000000  1.000000
                       1.000000  1.000000  1.000000  1.000000  1.000000  1.000000
                       1.000000  1.000000  1.000000  1.000000  1.000000  1.000000
                       1.000000  1.000000  1.000000  1.000000  1.000000  1.000000
                       1.000000  1.000000  1.000000  1.000000  1.000000  1.000000
                       1.000000  1.000000  1.000000  1.000000  1.000000  1.000000
                       1.000000  0.000000  0.000000  0.000000  0.000000  0.000000
                       0.000000  0.000000  0.000000  0.000000  0.000000  0.000000
                       0.000000  0.000000  0.000000  0.000000  0.000000  0.000000
                       0.000000  0.000000  0.000000  0.000000  0.000000  0.000000
                       0.000000  0.000000  0.000000  0.000000  0.000000  0.000000
                       0.000000  0.000000  0.000000  0.000000  0.000000  0.000000
                       0.000000  0.000000  0.000000  0.000000  0.000000  0.000000
                       0.000000  0.000000  0.000000  0.000000  0.000000  0.000000
                       1.000000  1.000000  1.000000  1.000000  1.000000  1.000000
                       1.000000  1.000000  1.000000  1.000000  1.000000  1.000000
                       1.000000  1.000000  1.000000  1.000000  1.000000  1.000000
                       1.000000  1.000000  1.000000  1.000000  1.000000  1.000000
                       1.000000  1.000000  1.000000  1.000000  1.000000  1.000000
                       1.000000  1.000000  1.000000  1.000000  1.000000  1.000000
                       1.000000  1.000000  1.000000  1.000000  1.000000  1.000000
                       1.000000  1.000000  1.000000  1.000000  1.000000  1.000000
                       1.000000  1.000000  1.000000  1.000000  1.000000  1.000000
                       1.000000  1.000000  1.000000  1.000000  1.000000  1.000000
                       1.000000  1.000000  1.000000  1.000000  1.000000  1.000000
                       1.000000  1.000000  1.000000  1.000000  1.000000  1.000000
                       1.000000  1.000000  1.000000  1.000000  1.000000  1.000000
                       1.000000  1.000000  1.000000  1.000000  1.000000  1.000000
                       1.000000  1.000000  1.000000  1.000000  1.000000  1.000000
                       1.000000  1.000000  1.000000  1.000000  1.000000  1.000000
                       1.000000  1.000000  1.000000  1.000000  1.000000  1.000000
                       1.000000  0.000000  0.000000  0.000000  0.000000  0.000000
                       0.000000  0.000000  0.000000  0.000000  0.000000  0.000000
                       0.000000  0.000000  0.000000  0.000000  0.000000  0.000000
                       0.000000  0.000000  0.000000  0.000000  0.000000  0.000000
                       0.000000  0.000000  0.000000  0.000000  0.000000  0.000000
                       0.000000  0.000000  0.000000  0.000000  0.000000  0.000000
                       0.000000  0.000000  0.000000  0.000000  0.000000  0.000000
                       0.000000  0.000000  0.000000  0.000000  0.000000  0.000000
                       1.000000  1.000000  1.000000  1.000000  1.000000  1.000000
                       1.000000  1.000000  1.000000  1.000000  1.000000  1.000000
                       1.000000  1.000000  1.000000  1.000000  1.000000  1.000000
                       1.000000  1.000000  1.000000  1.000000  1.000000  1.000000
                       1.000000  1.000000  1.000000  1.000000  1.000000  1.000000
                       1.000000  1.000000  1.000000  1.000000  1.000000  1.000000
                       1.000000  1.000000  1.000000  1.000000  1.000000  1.000000
                       1.000000  1.000000  1.000000  1.000000  1.000000  1.000000
                       1.000000  1.000000  1.000000  1.000000  1.000000  1.000000
                       1.000000  1.000000  1.000000  1.000000  1.000000  1.000000
                       1.000000  1.000000  1.000000  1.000000  1.000000  1.000000
                       1.000000  1.000000  1.000000  1.000000  1.000000  1.000000
                       1.000000  1.000000  1.000000  1.000000  1.000000  1.000000
                       1.000000  1.000000  1.000000  1.000000  1.000000  1.000000
                       1.000000  1.000000  1.000000  1.000000  1.000000  1.000000
                       1.000000  1.000000  1.000000  1.000000  1.000000  1.000000
                       1.000000  1.000000  1.000000  1.000000  1.000000  1.000000
                       1.000000  0.000000  0.000000  0.000000  0.000000  0.000000
                       0.000000  0.000000  0.000000  0.000000  0.000000  0.000000
                       0.000000  0.000000  0.000000  0.000000  0.000000  0.000000
                       0.000000  0.000000  0.000000  0.000000  0.000000  0.000000
                       0.000000  0.000000  0.000000  0.000000  0.000000  0.000000
                       0.000000  0.000000  0.000000  0.000000  0.000000  0.000000
                       0.000000  0.000000  0.000000  0.000000  0.000000  0.000000
                       0.000000  0.000000  0.000000  0.000000  0.000000  0.000000
                       1.000000  1.000000  1.000000  1.000000  1.000000  1.000000
                       1.000000  1.000000  1.000000  1.000000  1.000000  1.000000
                       1.000000  1.000000  1.000000  1.000000  1.000000  1.000000
                       1.000000  1.000000  1.000000  1.000000  1.000000  1.000000
                       1.000000  1.000000  1.000000  1.000000  1.000000  1.000000
                       1.000000  1.000000  1.000000  1.000000  1.000000  1.000000
                       1.000000  1.000000  1.000000  1.000000  1.000000  1.000000
                       1.000000  1.000000  1.000000  1.000000  1.000000  1.000000
                       1.000000  1.000000  1.000000  1.000000  1.000000  1.000000
                       1.000000  1.000000  1.000000  1.000000  1.000000  1.000000
                       1.000000  1.000000  1.000000  1.000000  1.000000  1.000000
                       1.000000  1.000000  1.000000  1.000000  1.000000  1.000000
                       1.000000  1.000000  1.000000  1.000000  1.000000  1.000000
                       1.000000  1.000000  1.000000  1.000000  1.000000  1.000000
                       1.000000  1.000000  1.000000  1.000000  1.000000  1.000000
                       1.000000  1.000000  1.000000  1.000000  1.000000  1.000000
                       1.000000  1.000000  1.000000  1.000000  1.000000  1.000000
                       1.000000  0.000000  0.000000  0.000000  0.000000  0.000000
                       0.000000  0.000000  0.000000  0.000000  0.000000  0.000000
                       0.000000  0.000000  0.000000  0.000000  0.000000  0.000000
                       0.000000  0.000000  0.000000  0.000000  0.000000  0.000000
                       0.000000  0.000000  0.000000  0.000000  0.000000  0.000000
                       0.000000  0.000000  0.000000  0.000000  0.000000  0.000000
                       0.000000  0.000000  0.000000  0.000000  0.000000  0.000000
                       0.000000  0.000000  0.000000  0.000000  0.000000  0.000000
                       1.000000  1.000000  1.000000  1.000000  1.000000  1.000000
                       1.000000  1.000000  1.000000  1.000000  1.000000  1.000000
                       1.000000  1.000000  1.000000  1.000000  1.000000  1.000000
                       1.000000  1.000000  1.000000  1.000000  1.000000  1.000000
                       1.000000  1.000000  1.000000  1.000000  1.000000  1.000000
                       1.000000  1.000000  1.000000  1.000000  1.000000  1.000000
                       1.000000  1.000000  1.000000  1.000000  1.000000  1.000000
[...]
 
--- !WARNING
src_file: m_vtorho.F90
src_line: 2212
message: |
    For k-point number: 1, and
    for spin polarization: 1 the minimal occupation factor is:   0.033.
    An adequate monitoring of convergence requires it to be at most 0.01_dp.
    Action: increase slightly the number of bands (or decrease nbdbuf).
...
 
 Total charge density [el/Bohr^3]
)     Maximum=    3.0499E+00  at reduced coord.    0.6200    0.0000    0.2708
)     Minimum=    1.2556E-03  at reduced coord.    0.6800    0.5000    0.7500
   Integrated=    2.0600E+02
 Spin up density      [el/Bohr^3]
)     Maximum=    1.5252E+00  at reduced coord.    0.6200    0.0000    0.2708
)     Minimum=    6.2765E-04  at reduced coord.    0.6800    0.5000    0.7500
   Integrated=    1.0301E+02
 Spin down density    [el/Bohr^3]
)     Maximum=    1.5247E+00  at reduced coord.    0.6200    0.0000    0.2708
)     Minimum=    6.2798E-04  at reduced coord.    0.6800    0.5000    0.7500
   Integrated=    1.0299E+02
 Magnetization (spin up - spin down) [el/Bohr^3]
)     Maximum=    1.6068E-03  at reduced coord.    0.1200    0.2667    0.7292
)     Minimum=   -6.0215E-04  at reduced coord.    0.7000    0.4667    0.9479
   Integrated=    2.0666E-02
 Relative magnetization (=zeta, between -1 and 1)
)     Maximum=    2.5935E-03  at reduced coord.    0.3800    0.0667    0.8542
)     Minimum=   -3.5975E-03  at reduced coord.    0.0000    0.5333    0.0521
 ETOT 16  -946.55477295654    -2.712E-04 2.960E-04 2.330E-01 4.572E-03 8.656E-03
 scprqt: <Vxc>= -4.4073828E-01 Hartree
 
 Pulay update with  7 previous iterations:
 mixing of old trial potential: alpha(m:m-4)=  0.561      0.151      0.397     -0.201E-01 -0.209E-01
{SCF_istep: 16 , Vnl|psi>: 79800 , wall_time: ' 04:52 [minutes] '} <<< TIME
 
 ITER STEP NUMBER    17
 newocc: new Fermi energy is       0.348498 , with nelect=    206.000000, Number of bisection calls: 47
 mkrho: echo density (plane-wave part only)
 Total charge density [el/Bohr^3]
)     Maximum=    3.0499E+00  at reduced coord.    0.6200    0.0000    0.2708
)     Minimum=    1.2551E-03  at reduced coord.    0.6800    0.5000    0.7500
   Integrated=    2.0600E+02
 Spin up density      [el/Bohr^3]
)     Maximum=    1.5249E+00  at reduced coord.    0.6200    0.0000    0.2708
)     Minimum=    6.2730E-04  at reduced coord.    0.6800    0.5000    0.7500
   Integrated=    1.0300E+02
 Spin down density    [el/Bohr^3]
)     Maximum=    1.5250E+00  at reduced coord.    0.6200    0.0000    0.2708
)     Minimum=    6.2782E-04  at reduced coord.    0.6800    0.5000    0.7500
   Integrated=    1.0300E+02
 Magnetization (spin up - spin down) [el/Bohr^3]
)     Maximum=    7.3625E-04  at reduced coord.    0.1200    0.2667    0.7396
)     Minimum=   -1.0151E-03  at reduced coord.    0.2800    0.5333    0.4896
   Integrated=   -5.1147E-04
 Relative magnetization (=zeta, between -1 and 1)
)     Maximum=    1.7389E-03  at reduced coord.    0.4800    0.1833    0.8125
)     Minimum=   -2.5307E-03  at reduced coord.    0.0000    0.5333    0.0521
 
--- !WARNING
src_file: m_vtorho.F90
src_line: 2212
message: |
    For k-point number: 1, and
    for spin polarization: 1 the minimal occupation factor is:   0.033.
    An adequate monitoring of convergence requires it to be at most 0.01_dp.
    Action: increase slightly the number of bands (or decrease nbdbuf).
...
 
 Total charge density [el/Bohr^3]
)     Maximum=    3.0499E+00  at reduced coord.    0.6200    0.0000    0.2708
)     Minimum=    1.2551E-03  at reduced coord.    0.6800    0.5000    0.7500
   Integrated=    2.0600E+02
 Spin up density      [el/Bohr^3]
)     Maximum=    1.5249E+00  at reduced coord.    0.6200    0.0000    0.2708
)     Minimum=    6.2730E-04  at reduced coord.    0.6800    0.5000    0.7500
   Integrated=    1.0300E+02
 Spin down density    [el/Bohr^3]
)     Maximum=    1.5250E+00  at reduced coord.    0.6200    0.0000    0.2708
)     Minimum=    6.2782E-04  at reduced coord.    0.6800    0.5000    0.7500
   Integrated=    1.0300E+02
 Magnetization (spin up - spin down) [el/Bohr^3]
)     Maximum=    7.3625E-04  at reduced coord.    0.1200    0.2667    0.7396
)     Minimum=   -1.0151E-03  at reduced coord.    0.2800    0.5333    0.4896
   Integrated=   -5.1147E-04
 Relative magnetization (=zeta, between -1 and 1)
)     Maximum=    1.7389E-03  at reduced coord.    0.4800    0.1833    0.8125
)     Minimum=   -2.5307E-03  at reduced coord.    0.0000    0.5333    0.0521
 ETOT 17  -946.55479854470    -2.559E-05 1.951E-04 1.178E-01 4.775E-03 4.781E-03
 scprqt: <Vxc>= -4.4073450E-01 Hartree
 
 Pulay update with  7 previous iterations:
 mixing of old trial potential: alpha(m:m-4)=  0.533      0.367      0.126      0.110     -0.594E-01
{SCF_istep: 17 , Vnl|psi>: 79800 , wall_time: ' 04:51 [minutes] '} <<< TIME
 
 ITER STEP NUMBER    18
 newocc: new Fermi energy is       0.348514 , with nelect=    206.000000, Number of bisection calls: 48
 mkrho: echo density (plane-wave part only)
 Total charge density [el/Bohr^3]
)     Maximum=    3.0500E+00  at reduced coord.    0.6200    0.0000    0.2708
)     Minimum=    1.2554E-03  at reduced coord.    0.6800    0.5000    0.7500
   Integrated=    2.0600E+02
 Spin up density      [el/Bohr^3]
)     Maximum=    1.5248E+00  at reduced coord.    0.6200    0.0000    0.2708
)     Minimum=    6.2766E-04  at reduced coord.    0.6800    0.5000    0.7500
   Integrated=    1.0300E+02
 Spin down density    [el/Bohr^3]
)     Maximum=    1.5251E+00  at reduced coord.    0.6200    0.0000    0.2708
)     Minimum=    6.2777E-04  at reduced coord.    0.6800    0.5000    0.7500
   Integrated=    1.0300E+02
 Magnetization (spin up - spin down) [el/Bohr^3]
)     Maximum=    5.2274E-04  at reduced coord.    0.1600    0.3000    0.7604
)     Minimum=   -1.0921E-03  at reduced coord.    0.3800    0.4667    0.4896
   Integrated=   -7.7382E-03
 Relative magnetization (=zeta, between -1 and 1)
)     Maximum=    1.2868E-03  at reduced coord.    0.5200    0.2333    0.5625
)     Minimum=   -1.8235E-03  at reduced coord.    0.0000    0.5333    0.0521
 
--- !WARNING
src_file: m_vtorho.F90
src_line: 2212
message: |
    For k-point number: 1, and
    for spin polarization: 1 the minimal occupation factor is:   0.033.
    An adequate monitoring of convergence requires it to be at most 0.01_dp.
    Action: increase slightly the number of bands (or decrease nbdbuf).
...
 
 Total charge density [el/Bohr^3]
)     Maximum=    3.0500E+00  at reduced coord.    0.6200    0.0000    0.2708
)     Minimum=    1.2554E-03  at reduced coord.    0.6800    0.5000    0.7500
   Integrated=    2.0600E+02
 Spin up density      [el/Bohr^3]
)     Maximum=    1.5248E+00  at reduced coord.    0.6200    0.0000    0.2708
)     Minimum=    6.2766E-04  at reduced coord.    0.6800    0.5000    0.7500
   Integrated=    1.0300E+02
 Spin down density    [el/Bohr^3]
)     Maximum=    1.5251E+00  at reduced coord.    0.6200    0.0000    0.2708
)     Minimum=    6.2777E-04  at reduced coord.    0.6800    0.5000    0.7500
   Integrated=    1.0300E+02
 Magnetization (spin up - spin down) [el/Bohr^3]
)     Maximum=    5.2274E-04  at reduced coord.    0.1600    0.3000    0.7604
)     Minimum=   -1.0921E-03  at reduced coord.    0.3800    0.4667    0.4896
   Integrated=   -7.7382E-03
 Relative magnetization (=zeta, between -1 and 1)
)     Maximum=    1.2868E-03  at reduced coord.    0.5200    0.2333    0.5625
)     Minimum=   -1.8235E-03  at reduced coord.    0.0000    0.5333    0.0521
 ETOT 18  -946.55480139582    -2.851E-06 2.470E-04 8.785E-02 2.154E-03 4.992E-03
 scprqt: <Vxc>= -4.4073635E-01 Hartree
 
 Pulay update with  7 previous iterations:
 mixing of old trial potential: alpha(m:m-4)=  0.276      0.432      0.238      0.870E-01  0.691E-01
{SCF_istep: 18 , Vnl|psi>: 79800 , wall_time: ' 04:52 [minutes] '} <<< TIME
 
 ITER STEP NUMBER    19
 newocc: new Fermi energy is       0.348520 , with nelect=    206.000000, Number of bisection calls: 50
 mkrho: echo density (plane-wave part only)
 Total charge density [el/Bohr^3]
)     Maximum=    3.0501E+00  at reduced coord.    0.6200    0.0000    0.2708
)     Minimum=    1.2553E-03  at reduced coord.    0.6800    0.5000    0.7500
   Integrated=    2.0600E+02
 Spin up density      [el/Bohr^3]
)     Maximum=    1.5249E+00  at reduced coord.    0.6200    0.0000    0.2708
)     Minimum=    6.2761E-04  at reduced coord.    0.6800    0.5000    0.7500
   Integrated=    1.0300E+02
 Spin down density    [el/Bohr^3]
)     Maximum=    1.5252E+00  at reduced coord.    0.6200    0.0000    0.2708
)     Minimum=    6.2768E-04  at reduced coord.    0.6800    0.5000    0.7500
   Integrated=    1.0300E+02
 Magnetization (spin up - spin down) [el/Bohr^3]
)     Maximum=    2.7281E-04  at reduced coord.    0.3000    0.0333    0.6875
)     Minimum=   -9.6555E-04  at reduced coord.    0.3800    0.4667    0.4896
   Integrated=   -9.4584E-03
 Relative magnetization (=zeta, between -1 and 1)
)     Maximum=    1.2147E-03  at reduced coord.    0.5200    0.2333    0.5625
)     Minimum=   -1.6054E-03  at reduced coord.    0.9800    0.5500    0.0521
 
--- !WARNING
src_file: m_vtorho.F90
src_line: 2212
message: |
    For k-point number: 1, and
    for spin polarization: 1 the minimal occupation factor is:   0.033.
    An adequate monitoring of convergence requires it to be at most 0.01_dp.
    Action: increase slightly the number of bands (or decrease nbdbuf).
...
 
 Total charge density [el/Bohr^3]
)     Maximum=    3.0501E+00  at reduced coord.    0.6200    0.0000    0.2708
)     Minimum=    1.2553E-03  at reduced coord.    0.6800    0.5000    0.7500
   Integrated=    2.0600E+02
 Spin up density      [el/Bohr^3]
)     Maximum=    1.5249E+00  at reduced coord.    0.6200    0.0000    0.2708
)     Minimum=    6.2761E-04  at reduced coord.    0.6800    0.5000    0.7500
   Integrated=    1.0300E+02
 Spin down density    [el/Bohr^3]
)     Maximum=    1.5252E+00  at reduced coord.    0.6200    0.0000    0.2708
)     Minimum=    6.2768E-04  at reduced coord.    0.6800    0.5000    0.7500
   Integrated=    1.0300E+02
 Magnetization (spin up - spin down) [el/Bohr^3]
)     Maximum=    2.7281E-04  at reduced coord.    0.3000    0.0333    0.6875
)     Minimum=   -9.6555E-04  at reduced coord.    0.3800    0.4667    0.4896
   Integrated=   -9.4584E-03
 Relative magnetization (=zeta, between -1 and 1)
)     Maximum=    1.2147E-03  at reduced coord.    0.5200    0.2333    0.5625
)     Minimum=   -1.6054E-03  at reduced coord.    0.9800    0.5500    0.0521
 ETOT 19  -946.55481823706    -1.684E-05 1.292E-04 7.115E-02 6.815E-04 4.922E-03
 scprqt: <Vxc>= -4.4073762E-01 Hartree
 
 Pulay update with  7 previous iterations:
 mixing of old trial potential: alpha(m:m-4)=  0.690      0.231      0.301E-01  0.914E-01 -0.299E-01
{SCF_istep: 19 , Vnl|psi>: 79800 , wall_time: ' 04:51 [minutes] '} <<< TIME
 
 ITER STEP NUMBER    20
 newocc: new Fermi energy is       0.348529 , with nelect=    206.000000, Number of bisection calls: 49
 mkrho: echo density (plane-wave part only)
 Total charge density [el/Bohr^3]
)     Maximum=    3.0497E+00  at reduced coord.    0.6200    0.0000    0.2708
)     Minimum=    1.2553E-03  at reduced coord.    0.6800    0.5000    0.7500
   Integrated=    2.0600E+02
 Spin up density      [el/Bohr^3]
)     Maximum=    1.5248E+00  at reduced coord.    0.6200    0.0000    0.2708
)     Minimum=    6.2765E-04  at reduced coord.    0.6800    0.5000    0.7500
   Integrated=    1.0300E+02
 Spin down density    [el/Bohr^3]
)     Maximum=    1.5249E+00  at reduced coord.    0.6200    0.0000    0.2708
)     Minimum=    6.2769E-04  at reduced coord.    0.6800    0.5000    0.7500
   Integrated=    1.0300E+02
 Magnetization (spin up - spin down) [el/Bohr^3]
)     Maximum=    2.6585E-04  at reduced coord.    0.1200    0.2667    0.7396
)     Minimum=   -6.6765E-04  at reduced coord.    0.3800    0.4833    0.5208
   Integrated=   -4.6079E-03
 Relative magnetization (=zeta, between -1 and 1)
)     Maximum=    9.4314E-04  at reduced coord.    0.5200    0.2333    0.5625
)     Minimum=   -1.2480E-03  at reduced coord.    0.9800    0.5500    0.0521
 
--- !WARNING
src_file: m_vtorho.F90
src_line: 2212
message: |
    For k-point number: 1, and
    for spin polarization: 1 the minimal occupation factor is:   0.033.
    An adequate monitoring of convergence requires it to be at most 0.01_dp.
    Action: increase slightly the number of bands (or decrease nbdbuf).
...
 
 Total charge density [el/Bohr^3]
)     Maximum=    3.0497E+00  at reduced coord.    0.6200    0.0000    0.2708
)     Minimum=    1.2553E-03  at reduced coord.    0.6800    0.5000    0.7500
   Integrated=    2.0600E+02
 Spin up density      [el/Bohr^3]
)     Maximum=    1.5248E+00  at reduced coord.    0.6200    0.0000    0.2708
)     Minimum=    6.2765E-04  at reduced coord.    0.6800    0.5000    0.7500
   Integrated=    1.0300E+02
 Spin down density    [el/Bohr^3]
)     Maximum=    1.5249E+00  at reduced coord.    0.6200    0.0000    0.2708
)     Minimum=    6.2769E-04  at reduced coord.    0.6800    0.5000    0.7500
   Integrated=    1.0300E+02
 Magnetization (spin up - spin down) [el/Bohr^3]
)     Maximum=    2.6585E-04  at reduced coord.    0.1200    0.2667    0.7396
)     Minimum=   -6.6765E-04  at reduced coord.    0.3800    0.4833    0.5208
   Integrated=   -4.6079E-03
 Relative magnetization (=zeta, between -1 and 1)
)     Maximum=    9.4314E-04  at reduced coord.    0.5200    0.2333    0.5625
)     Minimum=   -1.2480E-03  at reduced coord.    0.9800    0.5500    0.0521
 ETOT 20  -946.55482194908    -3.712E-06 1.763E-04 2.804E-02 1.639E-03 3.283E-03
 scprqt: <Vxc>= -4.4073993E-01 Hartree
 
 Pulay update with  7 previous iterations:
 mixing of old trial potential: alpha(m:m-4)=  0.565      0.407      0.167     -0.537E-01 -0.911E-02
{SCF_istep: 20 , Vnl|psi>: 79800 , wall_time: ' 04:52 [minutes] '} <<< TIME
 
 ITER STEP NUMBER    21
 newocc: new Fermi energy is       0.348515 , with nelect=    206.000000, Number of bisection calls: 49
 mkrho: echo density (plane-wave part only)
 Total charge density [el/Bohr^3]
)     Maximum=    3.0500E+00  at reduced coord.    0.6200    0.0000    0.2708
)     Minimum=    1.2553E-03  at reduced coord.    0.6800    0.5000    0.7500
   Integrated=    2.0600E+02
 Spin up density      [el/Bohr^3]
)     Maximum=    1.5248E+00  at reduced coord.    0.6200    0.0000    0.2708
)     Minimum=    6.2766E-04  at reduced coord.    0.6800    0.5000    0.7500
   Integrated=    1.0300E+02
 Spin down density    [el/Bohr^3]
)     Maximum=    1.5251E+00  at reduced coord.    0.6200    0.0000    0.2708
)     Minimum=    6.2768E-04  at reduced coord.    0.6800    0.5000    0.7500
   Integrated=    1.0300E+02
 Magnetization (spin up - spin down) [el/Bohr^3]
)     Maximum=    1.5280E-04  at reduced coord.    0.3200    0.9500    0.6667
)     Minimum=   -6.9254E-04  at reduced coord.    0.6400    0.5000    0.2917
   Integrated=   -9.4495E-03
 Relative magnetization (=zeta, between -1 and 1)
)     Maximum=    7.4113E-04  at reduced coord.    0.5200    0.2333    0.5625
)     Minimum=   -8.0156E-04  at reduced coord.    0.9600    0.5667    0.0417
 
--- !WARNING
src_file: m_vtorho.F90
src_line: 2212
message: |
    For k-point number: 1, and
    for spin polarization: 1 the minimal occupation factor is:   0.033.
    An adequate monitoring of convergence requires it to be at most 0.01_dp.
    Action: increase slightly the number of bands (or decrease nbdbuf).
...
 
 Total charge density [el/Bohr^3]
)     Maximum=    3.0500E+00  at reduced coord.    0.6200    0.0000    0.2708
)     Minimum=    1.2553E-03  at reduced coord.    0.6800    0.5000    0.7500
   Integrated=    2.0600E+02
 Spin up density      [el/Bohr^3]
)     Maximum=    1.5248E+00  at reduced coord.    0.6200    0.0000    0.2708
)     Minimum=    6.2766E-04  at reduced coord.    0.6800    0.5000    0.7500
   Integrated=    1.0300E+02
 Spin down density    [el/Bohr^3]
)     Maximum=    1.5251E+00  at reduced coord.    0.6200    0.0000    0.2708
)     Minimum=    6.2768E-04  at reduced coord.    0.6800    0.5000    0.7500
   Integrated=    1.0300E+02
 Magnetization (spin up - spin down) [el/Bohr^3]
)     Maximum=    1.5280E-04  at reduced coord.    0.3200    0.9500    0.6667
)     Minimum=   -6.9254E-04  at reduced coord.    0.6400    0.5000    0.2917
   Integrated=   -9.4495E-03
 Relative magnetization (=zeta, between -1 and 1)
)     Maximum=    7.4113E-04  at reduced coord.    0.5200    0.2333    0.5625
)     Minimum=   -8.0156E-04  at reduced coord.    0.9600    0.5667    0.0417
 ETOT 21  -946.55482351043    -1.561E-06 7.967E-05 1.697E-02 1.428E-03 3.596E-03
 scprqt: <Vxc>= -4.4073747E-01 Hartree
 
 Pulay update with  7 previous iterations:
 mixing of old trial potential: alpha(m:m-4)=  0.390      0.417      0.367      0.795E-01 -0.109
{SCF_istep: 21 , Vnl|psi>: 79800 , wall_time: ' 04:51 [minutes] '} <<< TIME
 
 ITER STEP NUMBER    22
 newocc: new Fermi energy is       0.348517 , with nelect=    206.000000, Number of bisection calls: 49
 mkrho: echo density (plane-wave part only)
 Total charge density [el/Bohr^3]
)     Maximum=    3.0499E+00  at reduced coord.    0.6200    0.0000    0.2708
)     Minimum=    1.2553E-03  at reduced coord.    0.6800    0.5000    0.7500
   Integrated=    2.0600E+02
 Spin up density      [el/Bohr^3]
)     Maximum=    1.5248E+00  at reduced coord.    0.6200    0.0000    0.2708
)     Minimum=    6.2769E-04  at reduced coord.    0.6800    0.5000    0.7500
   Integrated=    1.0299E+02
 Spin down density    [el/Bohr^3]
)     Maximum=    1.5251E+00  at reduced coord.    0.6200    0.0000    0.2708
)     Minimum=    6.2762E-04  at reduced coord.    0.6800    0.5000    0.7500
   Integrated=    1.0301E+02
 Magnetization (spin up - spin down) [el/Bohr^3]
)     Maximum=    1.0613E-04  at reduced coord.    0.3800    0.0000    0.6771
)     Minimum=   -6.7910E-04  at reduced coord.    0.6400    0.4833    0.2917
   Integrated=   -1.0800E-02
 Relative magnetization (=zeta, between -1 and 1)
)     Maximum=    5.6140E-04  at reduced coord.    0.5200    0.2333    0.5625
)     Minimum=   -5.1352E-04  at reduced coord.    0.9600    0.5667    0.0417
 
--- !WARNING
src_file: m_vtorho.F90
src_line: 2212
message: |
    For k-point number: 1, and
    for spin polarization: 1 the minimal occupation factor is:   0.033.
    An adequate monitoring of convergence requires it to be at most 0.01_dp.
    Action: increase slightly the number of bands (or decrease nbdbuf).
...
 
 Total charge density [el/Bohr^3]
)     Maximum=    3.0499E+00  at reduced coord.    0.6200    0.0000    0.2708
)     Minimum=    1.2553E-03  at reduced coord.    0.6800    0.5000    0.7500
   Integrated=    2.0600E+02
 Spin up density      [el/Bohr^3]
)     Maximum=    1.5248E+00  at reduced coord.    0.6200    0.0000    0.2708
)     Minimum=    6.2769E-04  at reduced coord.    0.6800    0.5000    0.7500
   Integrated=    1.0299E+02
 Spin down density    [el/Bohr^3]
)     Maximum=    1.5251E+00  at reduced coord.    0.6200    0.0000    0.2708
)     Minimum=    6.2762E-04  at reduced coord.    0.6800    0.5000    0.7500
   Integrated=    1.0301E+02
 Magnetization (spin up - spin down) [el/Bohr^3]
)     Maximum=    1.0613E-04  at reduced coord.    0.3800    0.0000    0.6771
)     Minimum=   -6.7910E-04  at reduced coord.    0.6400    0.4833    0.2917
   Integrated=   -1.0800E-02
 Relative magnetization (=zeta, between -1 and 1)
)     Maximum=    5.6140E-04  at reduced coord.    0.5200    0.2333    0.5625
)     Minimum=   -5.1352E-04  at reduced coord.    0.9600    0.5667    0.0417
 ETOT 22  -946.55482454568    -1.035E-06 1.120E-04 2.621E-03 6.622E-04 3.663E-03
 scprqt: <Vxc>= -4.4073764E-01 Hartree
 
 Pulay update with  7 previous iterations:
 mixing of old trial potential: alpha(m:m-4)=  0.789      0.253      0.509E-01  0.396E-01 -0.408E-01
{SCF_istep: 22 , Vnl|psi>: 79800 , wall_time: ' 04:52 [minutes] '} <<< TIME
 
 ITER STEP NUMBER    23
